ITEM: TIMESTEP
0
ITEM: NUMBER OF ATOMS
4096
ITEM: BOX BOUNDS pp pp pp
-1.2000000000000000e+01 1.2000000000000000e+01
-1.2000000000000000e+01 1.2000000000000000e+01
-1.2000000000000000e+01 1.2000000000000000e+01
ITEM: ATOMS id type xs ys zs
2530 1 0.0604939 0.0391241 0.0328665
599 1 0.0308903 0.070463 0.0218686
2198 1 0.0261497 0.0137312 0.0234231
2346 1 0.0659774 0.00156973 0.0106098
952 1 0.101064 0.0214038 0.0291359
679 1 0.0739683 0.0633249 0.0668439
3705 1 0.188142 0.0154338 0.0206118
2965 1 0.188292 0.0378217 0.0587218
2854 1 0.156649 0.0631223 0.042524
3703 1 0.16343 0.0461535 0.00240208
2796 1 0.259962 0.000556283 0.0561339
2024 1 0.225521 0.0248827 0.000530198
2434 1 0.442727 0.018058 0.0473366
784 1 0.475871 0.0389755 0.0293572
2014 1 0.524527 0.01817 0.0615888
3217 1 0.55148 0.0528297 0.0675965
3025 1 0.579374 0.0414211 0.0356424
1259 1 0.708952 0.0669107 0.0423098
2823 1 0.693178 0.0316263 0.0624132
3856 1 0.719551 0.00963841 0.00130691
3845 1 0.791587 0.04419 0.0320931
3015 1 0.827472 0.066132 0.0197583
2289 1 0.86315 0.0118639 0.0488068
1624 1 0.86076 0.0391102 0.0140533
1352 1 0.886845 0.0465459 0.0618045
2349 1 0.954577 0.0701527 0.0577292
248 1 0.998731 0.0234217 0.0554278
1431 1 0.998245 0.0683723 0.0522589
1932 1 0.036641 0.109783 0.00230136
2083 1 0.0966902 0.0933436 0.0441407
3931 1 0.155819 0.131709 0.0283597
1299 1 0.457198 0.117079 0.04632
1125 1 0.603992 0.0991163 0.0229835
2191 1 0.613688 0.101689 0.0643221
2953 1 0.591521 0.139531 0.0658657
787 1 0.641614 0.0886122 0.00346922
2546 1 0.692501 0.108062 0.0414627
2414 1 0.657551 0.104146 0.0677737
1796 1 0.715395 0.133175 0.0689852
738 1 0.800184 0.123866 0.0384752
669 1 0.832601 0.0961105 0.0516776
442 1 0.838742 0.126035 0.0188409
3094 1 0.86788 0.0763391 0.0355121
523 1 0.926177 0.10333 0.059573
64 1 0.903101 0.0991129 0.0216686
1294 1 0.96724 0.127264 0.00760454
569 1 0.0443327 0.151512 0.0126011
326 1 0.067644 0.187328 0.00152498
2905 1 0.0796553 0.204077 0.0630968
4064 1 0.100731 0.204169 0.0245588
2042 1 0.185365 0.151744 0.0545282
554 1 0.166974 0.205043 0.000195981
2356 1 0.221954 0.154423 0.00537709
13 1 0.269698 0.145101 0.0526416
2885 1 0.292799 0.180122 0.043906
2581 1 0.32685 0.202001 0.0288912
2334 1 0.299552 0.183305 0.000688192
985 1 0.39687 0.154366 0.0131919
3921 1 0.430831 0.188316 0.0597498
749 1 0.500631 0.172405 0.0216119
933 1 0.565151 0.156759 0.0347255
525 1 0.525326 0.155323 0.0534326
711 1 0.510782 0.196527 0.0564199
163 1 0.577069 0.198328 0.0305864
697 1 0.620326 0.20231 0.031616
3301 1 0.74544 0.164368 0.0697622
2458 1 0.919834 0.176694 0.0501904
2450 1 0.895768 0.212773 0.0575938
3836 1 0.934138 0.155331 0.015308
668 1 0.970822 0.211723 0.0616398
2967 1 0.989706 0.179151 0.0389469
2881 1 0.0537545 0.260965 0.0156562
2706 1 0.10762 0.236056 0.0538601
387 1 0.113731 0.243074 0.0110876
564 1 0.156157 0.24673 0.00250919
832 1 0.21455 0.26174 0.0349328
1926 1 0.281707 0.249031 0.0350841
1068 1 0.219809 0.218802 0.0437794
1510 1 0.349874 0.254063 0.00775488
3448 1 0.383393 0.257217 0.0653239
2467 1 0.411902 0.258569 0.030186
2644 1 0.358751 0.227421 0.0440713
1412 1 0.401921 0.220932 0.0529921
3261 1 0.541806 0.221606 0.0401983
3618 1 0.562823 0.227667 0.00244587
2276 1 0.562474 0.258757 0.0328909
3716 1 0.526679 0.249341 0.00873919
1967 1 0.628974 0.237989 0.00709002
768 1 0.736544 0.260544 0.0268507
3586 1 0.835249 0.221652 0.000996173
3774 1 0.796234 0.241276 0.00588923
429 1 0.831551 0.241658 0.0654371
1128 1 0.91247 0.244905 0.0148645
1582 1 0.891805 0.282987 0.063239
1031 1 0.869398 0.248898 0.00689573
741 1 0.944363 0.21814 0.00151276
2479 1 0.93236 0.283831 0.00956222
1529 1 0.032183 0.337864 0.0129361
201 1 0.0338485 0.297881 0.0296096
1339 1 0.0141449 0.287988 0.0680971
750 1 0.0720025 0.33881 0.0653404
621 1 0.204118 0.328653 0.0343052
3137 1 0.169469 0.356934 0.0344302
858 1 0.272488 0.299874 0.0694459
3702 1 0.277457 0.329141 0.0374207
1660 1 0.267 0.289501 0.0269149
2660 1 0.454037 0.327103 0.0379807
2165 1 0.522309 0.353697 0.0521087
3256 1 0.521201 0.320994 0.0227792
786 1 0.591092 0.336469 0.0384107
3300 1 0.623763 0.30841 0.0445201
204 1 0.581781 0.295737 0.0416284
1954 1 0.576461 0.351593 0.00104919
374 1 0.654804 0.333297 0.0627408
1804 1 0.693874 0.347403 0.0457704
1382 1 0.720668 0.355103 0.0109455
3060 1 0.755371 0.332671 0.0695085
3190 1 0.754076 0.292225 0.0514048
2887 1 0.764094 0.353024 0.00968286
2844 1 0.936948 0.345831 0.0398518
43 1 0.00337479 0.357596 0.0403307
76 1 0.130915 0.402167 0.0626869
575 1 0.28849 0.425004 0.0514371
2212 1 0.323162 0.419347 0.0252888
3727 1 0.327382 0.379467 0.00982881
2736 1 0.4207 0.390482 0.0633225
2860 1 0.57 0.415894 0.0545263
1025 1 0.581439 0.377768 0.0363179
1388 1 0.616428 0.362776 0.01459
2145 1 0.641552 0.428128 0.00818098
1525 1 0.83724 0.386269 0.00305512
3815 1 0.861644 0.416757 0.0227057
3101 1 0.945859 0.389605 0.0352708
3401 1 0.024615 0.463911 0.052316
3741 1 0.138302 0.469848 0.0471492
3132 1 0.203624 0.430481 0.047003
91 1 0.211848 0.497916 0.0228103
826 1 0.259852 0.432559 0.0188836
693 1 0.24612 0.433918 0.0604955
659 1 0.236538 0.46771 0.00432294
2131 1 0.316278 0.458146 0.042952
3250 1 0.315713 0.47711 0.00323859
3569 1 0.337518 0.497121 0.0335825
323 1 0.551955 0.491977 0.0167879
3412 1 0.55447 0.449279 0.0294944
1554 1 0.516949 0.430276 0.0125869
157 1 0.581666 0.455709 0.0646053
1321 1 0.663607 0.457259 0.0330252
732 1 0.708293 0.493037 0.068405
279 1 0.829155 0.446098 0.0249785
3573 1 0.992888 0.433777 0.0621133
1585 1 0.0143104 0.546691 0.0459838
1295 1 0.0246609 0.504973 0.0366229
1994 1 0.120304 0.564066 0.0311736
932 1 0.0953562 0.539084 0.0579664
3335 1 0.138755 0.537938 0.0606855
413 1 0.27753 0.548415 0.0058414
347 1 0.270634 0.533471 0.0468378
106 1 0.306047 0.555819 0.0379792
2737 1 0.299203 0.514241 0.0201337
3883 1 0.399883 0.525677 0.0472093
2589 1 0.370712 0.519319 0.0144555
2817 1 0.475416 0.548714 0.0482776
845 1 0.497906 0.53531 0.0132039
1320 1 0.508886 0.522264 0.0533117
3143 1 0.531023 0.559147 0.0620686
1787 1 0.558126 0.56859 0.0290773
1058 1 0.620689 0.534195 0.00742024
3738 1 0.652959 0.539975 0.0619939
2572 1 0.64406 0.565637 0.0273121
673 1 0.662046 0.526896 0.0203316
102 1 0.713334 0.56416 0.0517286
959 1 0.838017 0.569709 0.0575434
2694 1 0.873426 0.541796 0.061824
3377 1 0.887924 0.568268 0.00247322
1643 1 0.029142 0.615925 0.0323287
3823 1 0.0092859 0.630052 0.0693572
2455 1 0.0685267 0.597332 0.0416274
2371 1 0.0686539 0.62818 0.0142237
2236 1 0.00413435 0.588526 0.0561707
3847 1 0.103149 0.600919 0.0142404
3347 1 0.136818 0.602613 0.04154
1579 1 0.140123 0.623538 0.00357919
3978 1 0.175558 0.620832 0.0311362
1609 1 0.208745 0.626471 0.059934
1438 1 0.181937 0.572513 0.00417394
3339 1 0.242325 0.599654 0.0598832
942 1 0.452504 0.628814 0.0240347
2416 1 0.52784 0.630235 0.0109429
2452 1 0.539836 0.631029 0.0529754
2456 1 0.590176 0.591386 0.0483844
3121 1 0.689279 0.630764 0.00858995
1348 1 0.698591 0.642011 0.0503534
262 1 0.663536 0.620987 0.0674379
773 1 0.741157 0.639026 0.0443015
979 1 0.841387 0.608431 0.0378628
537 1 0.896388 0.578502 0.0671929
2593 1 0.0703991 0.709298 0.0386864
1829 1 0.00403471 0.650251 0.0316521
3369 1 0.22178 0.708921 0.0667714
4091 1 0.345553 0.652016 0.0290574
560 1 0.349989 0.685247 0.00146068
2846 1 0.379419 0.646269 0.055704
1026 1 0.383069 0.713379 0.00392217
2257 1 0.490072 0.65222 0.0203431
1162 1 0.546077 0.691975 0.0163068
378 1 0.56365 0.652144 0.0236826
6 1 0.604982 0.657178 0.00969438
1669 1 0.675994 0.669222 0.0242493
2673 1 0.718527 0.662465 0.0156276
1731 1 0.856142 0.677376 0.0544446
1923 1 0.796196 0.654928 0.00273111
1959 1 0.942777 0.710767 0.0467771
3077 1 0.0275088 0.718477 0.0358877
2332 1 0.0571145 0.775963 0.0657176
965 1 0.110902 0.726956 0.0358092
556 1 0.120087 0.752289 0.0705257
728 1 0.18988 0.737627 0.0617707
2976 1 0.215437 0.727618 0.0274158
2147 1 0.307242 0.740404 0.000618446
247 1 0.427259 0.759305 0.0244119
3775 1 0.568946 0.749443 0.0516633
810 1 0.691037 0.747716 0.0589968
2982 1 0.722289 0.759807 0.0306225
3405 1 0.756462 0.778773 0.00860705
2300 1 0.910828 0.784269 0.00827891
939 1 0.94772 0.78414 0.0320523
2448 1 0.933734 0.77198 0.0714133
1867 1 0.0301431 0.839428 0.049276
3941 1 0.0202334 0.790241 0.00958294
4047 1 0.0858105 0.802145 0.00872356
2766 1 0.225264 0.791261 0.0379464
3682 1 0.230009 0.854825 0.0569141
4025 1 0.284249 0.841914 0.010748
2129 1 0.287462 0.802658 0.0651188
173 1 0.350494 0.852294 0.0647543
4053 1 0.412984 0.814325 0.0616854
1235 1 0.385602 0.807089 0.0283943
1423 1 0.443651 0.797664 0.0349191
73 1 0.472575 0.829594 0.036857
2217 1 0.546109 0.82877 0.0630375
696 1 0.549725 0.809555 0.000394848
389 1 0.62002 0.837843 0.0223252
130 1 0.592622 0.806022 0.00903948
3370 1 0.660102 0.82117 0.0225668
553 1 0.773444 0.812671 0.058658
3719 1 0.756693 0.821103 0.0184675
3487 1 0.764064 0.853732 0.0470648
2336 1 0.719009 0.79938 0.0121104
3103 1 0.820564 0.842968 0.0150251
3535 1 0.904762 0.826683 0.0175217
2102 1 0.909374 0.797926 0.0489335
1440 1 0.985838 0.842477 0.0427851
1857 1 0.94328 0.813866 0.000842919
3651 1 0.061793 0.905928 0.0252951
1870 1 0.133948 0.907608 0.0398473
3097 1 0.189745 0.872563 0.0584273
3095 1 0.199764 0.916117 0.0600221
1386 1 0.371413 0.89091 0.0639738
1085 1 0.391627 0.907767 0.0286345
2232 1 0.442761 0.860542 0.0262059
2340 1 0.505056 0.8861 0.0494915
2123 1 0.566055 0.874018 0.0217547
2625 1 0.658734 0.892099 0.0549634
1930 1 0.696009 0.871147 0.0537722
1868 1 0.682871 0.894985 0.0179471
3943 1 0.7596 0.862153 0.00413231
2427 1 0.803754 0.911619 0.0222199
3344 1 0.794129 0.885738 0.0560277
1255 1 0.860196 0.885328 0.0478631
2604 1 0.923568 0.91259 0.0293811
609 1 0.985604 0.883823 0.0269174
1568 1 0.0299201 0.975442 0.0041942
989 1 0.0777413 0.93981 0.00214978
3005 1 0.0883363 0.965293 0.063682
3383 1 0.212729 0.951296 0.0364533
1504 1 0.145593 0.972058 0.040292
277 1 0.224038 0.992767 0.0309631
1757 1 0.242465 0.92892 0.0598447
315 1 0.255096 0.962716 0.0346643
2261 1 0.284314 0.970837 0.00366054
657 1 0.344402 0.95623 0.0650307
2301 1 0.323775 0.98955 0.00581143
720 1 0.392261 0.990668 0.0042513
3114 1 0.375284 0.964713 0.0346357
3620 1 0.428456 0.956101 0.0685535
2395 1 0.467236 0.996847 0.0183067
1840 1 0.448916 0.958904 0.00398077
3106 1 0.634227 0.954 0.0130679
1022 1 0.645726 0.963296 0.0552919
1347 1 0.689958 0.951145 0.0572772
3526 1 0.661598 0.929178 0.0347262
2709 1 0.672607 0.970917 0.0231072
516 1 0.699369 0.936896 0.016195
2820 1 0.67839 0.992186 0.0601768
2707 1 0.743727 0.99434 0.0335735
420 1 0.81233 0.968369 0.0714087
3061 1 0.889065 0.978995 0.0630366
2207 1 0.922964 0.978284 0.0356029
1323 1 0.96126 0.971843 0.0151677
3363 1 0.959559 0.968534 0.0582064
295 1 0.0781265 0.0222394 0.136008
1427 1 0.0870014 0.0636135 0.141665
901 1 0.129144 0.00351395 0.102356
1213 1 0.166137 0.0086651 0.0802648
1311 1 0.361677 0.0555446 0.101307
1306 1 0.36263 0.012513 0.112487
882 1 0.394631 0.0382772 0.124556
562 1 0.403606 0.0709122 0.0979211
3665 1 0.427523 0.0644521 0.134234
260 1 0.478031 0.0669176 0.0908189
1074 1 0.593283 0.063327 0.072054
2947 1 0.636318 0.0677832 0.0790439
2943 1 0.722639 0.055721 0.0821994
3453 1 0.761319 0.0430339 0.137102
1526 1 0.788797 0.0174979 0.114752
1462 1 0.826515 0.000399378 0.098675
2993 1 0.849831 0.034403 0.0836413
3598 1 0.822596 0.0689538 0.0858586
2491 1 0.884237 0.0109825 0.13805
4071 1 0.112682 0.0766422 0.082012
1195 1 0.182888 0.115909 0.107073
3636 1 0.264933 0.10668 0.119921
689 1 0.304285 0.121891 0.106703
2022 1 0.370659 0.0963521 0.113143
1936 1 0.369766 0.126519 0.0819312
3668 1 0.433731 0.125531 0.081768
1630 1 0.562842 0.112167 0.125591
1834 1 0.635017 0.103475 0.104844
3056 1 0.632716 0.138112 0.0801917
2401 1 0.660856 0.111764 0.140172
90 1 0.805824 0.0839537 0.122769
3628 1 0.816639 0.111067 0.0894214
3302 1 0.877516 0.103789 0.11504
983 1 0.950839 0.129676 0.0836495
3596 1 0.985913 0.11625 0.105098
1977 1 0.00689899 0.155718 0.105532
72 1 0.188737 0.156043 0.124723
1507 1 0.180195 0.198037 0.114453
61 1 0.231857 0.160473 0.116425
447 1 0.303014 0.156407 0.079642
2045 1 0.347569 0.162478 0.138582
3050 1 0.372261 0.187317 0.111596
1744 1 0.471482 0.190206 0.0760746
2687 1 0.618389 0.208308 0.131932
2669 1 0.710561 0.155272 0.106106
1368 1 0.656059 0.187387 0.131309
11 1 0.679351 0.151954 0.137739
381 1 0.781426 0.182449 0.0874803
3936 1 0.743114 0.183038 0.108128
116 1 0.780249 0.189114 0.13149
1557 1 0.932233 0.167931 0.0914838
1586 1 0.00633491 0.227294 0.134953
968 1 0.21307 0.225386 0.10806
3091 1 0.280745 0.257251 0.0780408
504 1 0.337861 0.266671 0.118354
1084 1 0.352472 0.225959 0.113668
180 1 0.412419 0.240584 0.0924681
2511 1 0.407806 0.259182 0.133206
2646 1 0.453489 0.25906 0.141054
3163 1 0.432762 0.223312 0.126662
2793 1 0.476411 0.223351 0.129485
927 1 0.55496 0.247385 0.104114
778 1 0.515363 0.233225 0.114123
402 1 0.656879 0.229178 0.123412
3908 1 0.745022 0.215746 0.135204
3771 1 0.729262 0.222904 0.0946809
2974 1 0.765244 0.243753 0.108246
3550 1 0.803805 0.228166 0.12378
1166 1 0.793396 0.225542 0.0805508
3671 1 0.848816 0.28537 0.115714
3128 1 0.891899 0.22423 0.10067
798 1 0.865897 0.257112 0.0875602
3030 1 0.950208 0.24501 0.0805136
3835 1 0.964539 0.23049 0.120609
1397 1 0.930705 0.284594 0.0832439
1014 1 0.00937733 0.354624 0.0831599
1603 1 0.0566029 0.33253 0.128345
355 1 0.106622 0.287692 0.126403
1184 1 0.12817 0.339708 0.103961
31 1 0.088143 0.319488 0.101926
517 1 0.0946353 0.355743 0.125448
2351 1 0.207937 0.328886 0.0778332
1755 1 0.167546 0.329094 0.0932147
1150 1 0.158851 0.333885 0.136205
1262 1 0.200007 0.339384 0.119248
120 1 0.252907 0.286026 0.142769
2196 1 0.344977 0.344089 0.14197
3669 1 0.397525 0.300325 0.121725
796 1 0.407332 0.343064 0.129257
3276 1 0.438377 0.312564 0.0760963
2631 1 0.487797 0.333698 0.118408
801 1 0.587734 0.356977 0.075927
3944 1 0.617836 0.354972 0.140927
294 1 0.730241 0.342075 0.1036
143 1 0.809789 0.338787 0.102768
366 1 0.790267 0.334547 0.141051
2795 1 0.876466 0.317239 0.126125
2632 1 0.946393 0.326082 0.0785361
4040 1 0.0331441 0.388318 0.0991513
2271 1 0.0763232 0.392313 0.109685
2814 1 0.0994948 0.421842 0.0874355
941 1 0.115616 0.380602 0.096421
3172 1 0.157156 0.398653 0.0971991
1964 1 0.156954 0.40308 0.140885
1851 1 0.148854 0.363313 0.073279
3971 1 0.189467 0.368423 0.0889444
1596 1 0.255014 0.403253 0.129989
3044 1 0.274327 0.372925 0.106616
3208 1 0.270947 0.413874 0.0900189
1753 1 0.298802 0.386159 0.0720894
2861 1 0.296684 0.39279 0.139283
3038 1 0.338153 0.384712 0.128817
3999 1 0.341298 0.388891 0.084793
29 1 0.405742 0.417347 0.0943713
1665 1 0.405716 0.374476 0.0997729
1370 1 0.470233 0.422903 0.0742748
1737 1 0.533165 0.406427 0.117881
1151 1 0.588259 0.423978 0.0948946
594 1 0.756056 0.360538 0.133628
3210 1 0.735691 0.385601 0.106089
2849 1 0.724113 0.41839 0.080545
508 1 0.777702 0.393979 0.114625
4065 1 0.843444 0.426779 0.141698
3200 1 0.945808 0.370011 0.0750333
254 1 0.961512 0.367648 0.141149
159 1 0.97454 0.420442 0.0977293
338 1 0.038838 0.457097 0.117728
1406 1 0.133904 0.492097 0.111644
62 1 0.112579 0.453928 0.114683
931 1 0.220122 0.429027 0.133333
293 1 0.423671 0.429424 0.132154
2422 1 0.439644 0.445088 0.0949318
3354 1 0.444599 0.48816 0.0890815
1518 1 0.554747 0.483304 0.0871796
417 1 0.561909 0.438482 0.126621
3196 1 0.603232 0.453483 0.123577
4062 1 0.656746 0.449653 0.0760509
1924 1 0.74524 0.499463 0.0907161
285 1 0.742804 0.45763 0.133944
2322 1 0.776316 0.431593 0.137025
3068 1 0.846197 0.436757 0.0993894
171 1 0.911199 0.456206 0.121743
1040 1 0.952274 0.470638 0.132564
3782 1 0.0268461 0.563714 0.0848561
215 1 0.0693687 0.569958 0.0759036
350 1 0.0019276 0.565107 0.120916
1130 1 0.0794766 0.501097 0.0722642
935 1 0.110906 0.525578 0.12588
3603 1 0.253848 0.562125 0.0776121
3524 1 0.2941 0.546326 0.080478
3708 1 0.319094 0.55759 0.113294
2246 1 0.376844 0.539402 0.140858
2444 1 0.426732 0.527967 0.0825143
1343 1 0.456545 0.560426 0.0846177
4026 1 0.497025 0.545042 0.0881843
780 1 0.78243 0.522376 0.0917945
1911 1 0.85529 0.503172 0.0726166
3563 1 0.846502 0.503849 0.114757
2859 1 0.897251 0.549252 0.098727
3155 1 0.860953 0.569344 0.094028
2333 1 0.0280388 0.627651 0.107842
1861 1 0.0411848 0.603037 0.0735977
775 1 0.103734 0.586156 0.0977974
3319 1 0.146129 0.628173 0.13418
3753 1 0.208844 0.634286 0.103688
3013 1 0.245237 0.63835 0.0808609
3141 1 0.267195 0.601018 0.0946204
916 1 0.487305 0.585867 0.102786
1061 1 0.516935 0.599442 0.0725077
727 1 0.514928 0.640499 0.138156
348 1 0.607773 0.584589 0.120158
2578 1 0.675635 0.621794 0.133173
1986 1 0.714514 0.640283 0.124944
1738 1 0.757003 0.636579 0.113768
2856 1 0.834131 0.59774 0.113639
3954 1 0.799311 0.576161 0.127312
400 1 0.791778 0.642684 0.0867361
2176 1 0.829858 0.6408 0.108589
2254 1 0.889164 0.61994 0.079849
1832 1 0.9114 0.618952 0.117724
3601 1 0.984971 0.636021 0.104813
2538 1 0.0338689 0.705464 0.101963
3461 1 0.0359717 0.668237 0.1243
1584 1 0.106494 0.692975 0.0988533
2056 1 0.180619 0.697326 0.0752705
1236 1 0.158078 0.669892 0.136823
3368 1 0.14929 0.698927 0.104993
452 1 0.212271 0.6672 0.075682
867 1 0.252254 0.681725 0.0812341
1803 1 0.277273 0.658846 0.136976
1580 1 0.625207 0.693341 0.073993
1702 1 0.578538 0.699194 0.121115
3026 1 0.622089 0.70141 0.116592
2822 1 0.604732 0.664723 0.132303
3016 1 0.689871 0.70582 0.0749286
2504 1 0.659741 0.684596 0.0991521
3353 1 0.726099 0.649513 0.0839139
844 1 0.731448 0.693347 0.0775131
1218 1 0.738072 0.675785 0.116404
3018 1 0.777003 0.698297 0.123362
1278 1 0.846291 0.704836 0.134052
3239 1 0.909405 0.656255 0.0940099
1307 1 0.866099 0.656049 0.0896634
365 1 0.920294 0.686437 0.122758
3629 1 0.973532 0.699042 0.0756383
3455 1 0.967149 0.676751 0.112266
2453 1 0.0675446 0.779906 0.132807
2663 1 0.0806667 0.738156 0.139627
1627 1 0.0909445 0.733878 0.0973184
2088 1 0.223908 0.747154 0.0887109
2603 1 0.380346 0.742665 0.133621
735 1 0.450165 0.714403 0.118569
3662 1 0.481233 0.783498 0.0887543
686 1 0.439544 0.772569 0.094757
3873 1 0.507465 0.740917 0.137485
3000 1 0.537667 0.71488 0.11919
3733 1 0.550444 0.779344 0.106869
3609 1 0.571815 0.742593 0.119864
1300 1 0.773695 0.77098 0.0731506
2481 1 0.797557 0.770889 0.110232
3384 1 0.900582 0.767781 0.126131
2977 1 0.0586258 0.851412 0.118684
1353 1 0.19675 0.828983 0.10559
2052 1 0.274843 0.849379 0.130423
1888 1 0.311164 0.837729 0.0767424
913 1 0.327792 0.791561 0.129988
2379 1 0.483631 0.826449 0.0795337
3948 1 0.665401 0.794215 0.127982
2036 1 0.716557 0.803797 0.0856247
1747 1 0.731975 0.79483 0.126092
503 1 0.775021 0.800537 0.133534
606 1 0.829582 0.827361 0.0858685
2601 1 0.853046 0.792476 0.0718089
3644 1 0.894459 0.78812 0.087698
2200 1 0.0192613 0.888138 0.0840605
3152 1 0.0647081 0.927288 0.139354
1490 1 0.11053 0.923942 0.132349
2768 1 0.160549 0.900539 0.0738432
3122 1 0.181053 0.87102 0.101315
2867 1 0.209349 0.860108 0.132551
8 1 0.188268 0.914753 0.102368
3794 1 0.251389 0.861538 0.0941168
2306 1 0.266167 0.892151 0.121082
3688 1 0.215183 0.928041 0.133765
1055 1 0.344641 0.857935 0.131606
3997 1 0.342064 0.89848 0.118027
278 1 0.303186 0.902102 0.100197
2233 1 0.364092 0.925722 0.0910008
1637 1 0.410883 0.890366 0.127091
2497 1 0.438038 0.92436 0.136567
3227 1 0.534115 0.899295 0.0802869
622 1 0.522752 0.925294 0.11539
357 1 0.663382 0.857202 0.0801734
688 1 0.669804 0.892884 0.132925
986 1 0.706575 0.912753 0.11977
3427 1 0.733445 0.868684 0.0771349
3907 1 0.759277 0.870095 0.114017
2038 1 0.829639 0.89339 0.078914
1933 1 0.789796 0.898106 0.0976375
2922 1 0.987458 0.86853 0.106128
1806 1 0.954695 0.887937 0.1282
2292 1 0.00355059 0.981638 0.121188
340 1 0.127815 0.963488 0.119775
489 1 0.0892053 0.961663 0.137883
4032 1 0.151087 0.968591 0.0840075
2713 1 0.145384 0.928903 0.103369
872 1 0.267316 0.961829 0.0766293
1858 1 0.335865 0.997093 0.0801139
3470 1 0.324249 0.994435 0.122018
3758 1 0.399005 0.994796 0.128686
2710 1 0.472009 0.958345 0.0787451
3675 1 0.457898 0.958936 0.120042
2281 1 0.474522 0.996366 0.101069
3306 1 0.442358 0.998007 0.129686
1846 1 0.535397 0.963952 0.102016
410 1 0.658709 0.929081 0.0782406
3048 1 0.699202 0.95159 0.139107
426 1 0.739283 0.935003 0.136393
2516 1 0.821148 0.959759 0.113084
1498 1 0.786044 0.941724 0.0942271
1916 1 0.856356 0.980803 0.124894
665 1 0.817019 0.995332 0.139606
633 1 0.928318 0.994314 0.0754164
3020 1 0.990567 0.989199 0.0801924
3903 1 0.0688734 0.0401941 0.174761
136 1 0.0621137 0.0206114 0.214133
3778 1 0.110696 0.0347612 0.161982
640 1 0.129447 0.0406811 0.200168
973 1 0.280468 0.0667699 0.192579
2337 1 0.297225 0.0271307 0.180891
905 1 0.397926 0.0167922 0.19039
4054 1 0.371848 0.018737 0.154517
3454 1 0.464482 0.0596957 0.158565
3904 1 0.535054 0.0249499 0.192395
1145 1 0.545647 0.0662955 0.185256
2079 1 0.601346 0.0338946 0.14449
3499 1 0.640282 0.0302808 0.211336
3576 1 0.700401 0.0472989 0.173491
205 1 0.657878 0.0561235 0.180696
302 1 0.746984 0.0208107 0.209292
2035 1 0.84637 0.0136353 0.206676
2810 1 0.899917 0.0640645 0.180854
2433 1 0.915882 0.0293378 0.202214
3887 1 0.93539 0.068164 0.204823
1893 1 0.00426244 0.138953 0.212225
2824 1 0.0476135 0.137826 0.204757
474 1 0.0900378 0.0955539 0.203602
146 1 0.0882441 0.102391 0.159536
3714 1 0.132402 0.084755 0.201368
2994 1 0.151872 0.104128 0.166886
1546 1 0.305341 0.129586 0.188553
1425 1 0.540052 0.0773383 0.143582
3228 1 0.527622 0.103452 0.174768
853 1 0.500769 0.10684 0.207914
1773 1 0.543864 0.13904 0.156051
310 1 0.527018 0.141917 0.197414
501 1 0.590469 0.12716 0.201869
1376 1 0.688206 0.0773066 0.203146
3182 1 0.765475 0.142097 0.200804
1497 1 0.779261 0.0775642 0.156574
2809 1 0.807045 0.141637 0.186754
3260 1 0.811096 0.107557 0.159383
3186 1 0.875112 0.128187 0.192803
1869 1 0.93872 0.142411 0.200245
703 1 0.0659008 0.196243 0.145926
2117 1 0.0505674 0.200193 0.188575
1123 1 0.0668692 0.16299 0.173614
3984 1 0.107726 0.162108 0.19069
2498 1 0.130774 0.185082 0.160774
3533 1 0.188348 0.172454 0.189993
1979 1 0.232213 0.208147 0.16217
271 1 0.216621 0.166305 0.157212
2239 1 0.392761 0.190265 0.180087
408 1 0.425967 0.182681 0.208278
3912 1 0.462821 0.198696 0.190186
2076 1 0.511982 0.206647 0.148255
1947 1 0.510942 0.165926 0.164228
193 1 0.507699 0.199447 0.191317
2771 1 0.620047 0.166632 0.146979
1069 1 0.616343 0.19918 0.208872
1648 1 0.659577 0.202491 0.201998
4048 1 0.656756 0.172109 0.170915
3770 1 0.773932 0.157506 0.161431
3471 1 0.736152 0.168456 0.182291
3243 1 0.911311 0.198502 0.172174
812 1 0.903164 0.164568 0.145835
3049 1 0.882811 0.193492 0.20443
792 1 0.0515791 0.239475 0.204436
4094 1 0.0601685 0.268173 0.171582
2708 1 0.0254695 0.265039 0.146376
522 1 0.05307 0.281547 0.213044
2380 1 0.0771404 0.228997 0.171694
1234 1 0.191057 0.214578 0.175667
3622 1 0.158199 0.216535 0.148152
3131 1 0.274452 0.25122 0.210821
3804 1 0.230872 0.254647 0.21196
3564 1 0.342654 0.2523 0.188733
174 1 0.364512 0.248079 0.149374
1940 1 0.376085 0.265017 0.213807
2218 1 0.485305 0.233155 0.204504
876 1 0.519958 0.238998 0.177637
1211 1 0.585868 0.230573 0.213359
3861 1 0.696952 0.26507 0.155305
1950 1 0.653744 0.25791 0.156324
3991 1 0.646506 0.215856 0.163798
2017 1 0.757995 0.234442 0.172612
2054 1 0.794525 0.216062 0.18794
1279 1 0.826752 0.260717 0.144203
134 1 0.880112 0.259947 0.212816
1020 1 0.859459 0.266027 0.174488
3293 1 0.0235392 0.290038 0.182623
2228 1 0.0625805 0.310765 0.181732
1707 1 0.104237 0.356088 0.1686
2966 1 0.170733 0.299854 0.163198
631 1 0.226069 0.346178 0.152644
3580 1 0.288892 0.343557 0.178308
3153 1 0.359565 0.313376 0.170076
2179 1 0.396538 0.29705 0.188204
2107 1 0.468573 0.349521 0.18119
3332 1 0.437404 0.317164 0.180929
1952 1 0.504836 0.332541 0.196961
26 1 0.505486 0.347383 0.155945
3780 1 0.668974 0.297243 0.143684
1056 1 0.680873 0.307123 0.209407
9 1 0.826626 0.312183 0.20876
1428 1 0.8546 0.342425 0.154446
3894 1 0.892814 0.325965 0.166703
89 1 0.875446 0.300492 0.197431
3317 1 0.932746 0.337766 0.153447
4056 1 0.0392914 0.422756 0.17631
3641 1 0.071935 0.41229 0.148777
904 1 0.100715 0.421644 0.202245
2653 1 0.117813 0.380996 0.202255
3882 1 0.133296 0.412268 0.175825
2726 1 0.265524 0.364801 0.148674
677 1 0.292024 0.422823 0.169956
3915 1 0.338768 0.380643 0.195982
304 1 0.359001 0.420356 0.144006
884 1 0.41202 0.399973 0.162401
2009 1 0.5292 0.395199 0.192568
3773 1 0.536777 0.379153 0.152365
4068 1 0.536533 0.357223 0.213392
1021 1 0.596093 0.408643 0.174801
3442 1 0.593605 0.387284 0.213355
1053 1 0.58043 0.376922 0.149629
2892 1 0.692689 0.362347 0.155154
192 1 0.725987 0.389805 0.148519
2957 1 0.768029 0.393978 0.157733
2913 1 0.74185 0.427017 0.164941
3964 1 0.807756 0.402949 0.145311
1606 1 0.870595 0.384594 0.210925
1346 1 0.971236 0.388589 0.178309
2827 1 0.942264 0.392739 0.210511
3342 1 0.0640886 0.477442 0.148185
3419 1 0.00796904 0.448593 0.193123
3007 1 0.142137 0.463451 0.143862
3992 1 0.132349 0.484411 0.179776
2077 1 0.106691 0.486462 0.144613
2507 1 0.0889469 0.488857 0.183282
3581 1 0.173584 0.483402 0.162706
976 1 0.180453 0.443321 0.145942
266 1 0.15682 0.449354 0.182659
481 1 0.200132 0.455396 0.183062
1298 1 0.181163 0.430562 0.213045
1116 1 0.258775 0.442819 0.148468
3933 1 0.230122 0.486884 0.185649
2490 1 0.352016 0.455998 0.168954
1850 1 0.402724 0.497357 0.193258
524 1 0.359411 0.497275 0.185399
2386 1 0.548219 0.453603 0.16427
739 1 0.541119 0.434838 0.20266
1447 1 0.624435 0.471191 0.157296
2440 1 0.646456 0.474996 0.194302
155 1 0.755322 0.438235 0.204487
1944 1 0.796087 0.451335 0.196299
2499 1 0.859762 0.458541 0.166061
1154 1 0.94115 0.486893 0.171707
1974 1 0.114209 0.521756 0.169262
1126 1 0.0847377 0.530298 0.200568
3807 1 0.157041 0.520098 0.179609
3726 1 0.302075 0.555198 0.153638
286 1 0.34408 0.567413 0.147984
652 1 0.381825 0.570976 0.169227
1831 1 0.453287 0.539521 0.149894
3923 1 0.430257 0.530529 0.186698
3519 1 0.494814 0.548429 0.160246
1243 1 0.519452 0.511938 0.163622
119 1 0.560548 0.518562 0.14947
2514 1 0.665599 0.51453 0.195829
3139 1 0.705483 0.564831 0.162152
2319 1 0.725264 0.551354 0.199131
1714 1 0.73733 0.534067 0.159805
369 1 0.848574 0.531222 0.147634
2794 1 0.814285 0.503535 0.144881
3690 1 0.809132 0.545486 0.155546
448 1 0.887386 0.522617 0.167014
2103 1 0.908554 0.570788 0.213645
458 1 0.975885 0.511756 0.179561
3389 1 0.936709 0.568746 0.179818
708 1 0.0411306 0.610217 0.145458
1652 1 0.00514603 0.607845 0.170334
2693 1 0.138255 0.594614 0.194997
2732 1 0.0974952 0.594683 0.211727
1230 1 0.165422 0.599035 0.160512
849 1 0.25344 0.614773 0.198053
521 1 0.34579 0.585926 0.188064
2183 1 0.319508 0.618988 0.197297
2645 1 0.314569 0.597041 0.160664
1289 1 0.382782 0.61006 0.187399
2091 1 0.422488 0.623968 0.195877
3274 1 0.381781 0.573935 0.212011
1722 1 0.489481 0.604328 0.143264
3713 1 0.486396 0.636576 0.171219
2803 1 0.455132 0.606544 0.172747
2898 1 0.525225 0.578978 0.151748
956 1 0.501048 0.633133 0.211751
1820 1 0.642775 0.628201 0.190109
172 1 0.638686 0.641225 0.14754
1199 1 0.667357 0.595571 0.206636
1621 1 0.709838 0.608036 0.156779
4044 1 0.726612 0.631466 0.188508
1089 1 0.778087 0.63764 0.152545
306 1 0.782991 0.577963 0.168646
3955 1 0.804349 0.614521 0.179745
4019 1 0.0621787 0.668358 0.185397
477 1 0.0630653 0.711304 0.170175
3092 1 0.0989466 0.650707 0.168874
2874 1 0.143194 0.710462 0.146394
862 1 0.261534 0.650866 0.176482
3291 1 0.245341 0.683996 0.153626
1201 1 0.286273 0.64374 0.210322
1308 1 0.444756 0.650261 0.170107
1047 1 0.438174 0.660404 0.213335
2388 1 0.499274 0.676415 0.158112
16 1 0.542895 0.644266 0.204674
1013 1 0.69813 0.665194 0.19059
662 1 0.711501 0.705717 0.198674
3879 1 0.655801 0.667839 0.178498
2190 1 0.760717 0.660519 0.186077
1892 1 0.80669 0.704093 0.156019
1414 1 0.968873 0.648119 0.143913
1615 1 0.997768 0.650121 0.177074
3721 1 0.940331 0.696958 0.18998
3517 1 0.0657157 0.771853 0.203813
1762 1 0.0253619 0.770618 0.185373
694 1 0.1075 0.764304 0.191125
2470 1 0.121871 0.747472 0.152735
3615 1 0.114267 0.726837 0.213575
3972 1 0.187481 0.739239 0.190305
1387 1 0.259713 0.766026 0.210816
101 1 0.329616 0.753429 0.200889
855 1 0.309399 0.714907 0.204866
232 1 0.392134 0.715934 0.166395
1670 1 0.365738 0.773471 0.188792
281 1 0.434845 0.716424 0.15876
852 1 0.464693 0.745167 0.146353
1380 1 0.570006 0.754031 0.162801
3599 1 0.699357 0.784611 0.154822
2069 1 0.745259 0.732212 0.190018
2829 1 0.849148 0.76856 0.170953
649 1 0.809891 0.717516 0.198508
2128 1 0.812054 0.784922 0.18889
2323 1 0.84921 0.782099 0.212876
3980 1 0.905397 0.723782 0.196684
2750 1 0.915442 0.765531 0.200889
1836 1 0.919211 0.714971 0.156403
909 1 0.890989 0.782424 0.166933
2288 1 0.975651 0.722633 0.194028
2019 1 0.956433 0.777312 0.170968
2576 1 0.00516327 0.796333 0.214285
4036 1 0.138448 0.837337 0.207857
1067 1 0.172969 0.847571 0.183172
3165 1 0.241526 0.849978 0.160964
3745 1 0.284572 0.791003 0.184496
1309 1 0.3081 0.825287 0.197399
2838 1 0.450702 0.854988 0.185558
189 1 0.501102 0.786618 0.205687
4092 1 0.565436 0.835857 0.196592
2634 1 0.679516 0.824384 0.156018
2446 1 0.743538 0.832502 0.181355
3438 1 0.857053 0.80635 0.149073
2220 1 0.966091 0.809159 0.19882
527 1 0.0224626 0.915066 0.146824
1351 1 0.0538417 0.884689 0.146188
3017 1 0.0238617 0.907394 0.209417
3464 1 0.115196 0.899489 0.170062
270 1 0.168886 0.869799 0.144812
648 1 0.232698 0.891741 0.151219
3269 1 0.342384 0.889692 0.161039
485 1 0.415473 0.880097 0.194292
2870 1 0.404842 0.911765 0.164009
894 1 0.440957 0.888224 0.15967
196 1 0.500836 0.925521 0.193502
1338 1 0.563081 0.878287 0.212134
559 1 0.566469 0.907031 0.178149
380 1 0.607271 0.92331 0.184249
2405 1 0.714719 0.892792 0.18037
2570 1 0.751912 0.91156 0.17024
1748 1 0.744024 0.869751 0.1568
1946 1 0.861792 0.888021 0.177157
928 1 0.925361 0.924563 0.192015
1287 1 0.953413 0.918761 0.158959
2263 1 0.98326 0.864384 0.183927
2398 1 0.959293 0.898078 0.196593
93 1 0.0692373 0.945598 0.206813
466 1 0.0586508 0.96277 0.167983
3885 1 0.11322 0.996233 0.14365
2843 1 0.120007 0.99972 0.187452
3221 1 0.0926409 0.935775 0.171505
253 1 0.270256 0.995058 0.193411