LAMMPS data file, version 2023-ICMS, timestep = unkown

4096 atoms

1 atom types

-12.0 12.0 xlo xhi
-12.0 12.0 ylo yhi
-12.0 12.0 zlo zhi

Masses

1 1.0
Atoms

1 1 -11.250 -11.250 -11.250
2 1 -11.250 -11.250  -9.750
3 1 -11.250 -11.250  -8.250
4 1 -11.250 -11.250  -6.750
5 1 -11.250 -11.250  -5.250
6 1 -11.250 -11.250  -3.750
7 1 -11.250 -11.250  -2.250
8 1 -11.250 -11.250  -0.750
9 1 -11.250 -11.250   0.750
10 1 -11.250 -11.250   2.250
11 1 -11.250 -11.250   3.750
12 1 -11.250 -11.250   5.250
13 1 -11.250 -11.250   6.750
14 1 -11.250 -11.250   8.250
15 1 -11.250 -11.250   9.750
16 1 -11.250 -11.250  11.250
17 1 -11.250  -9.750 -11.250
18 1 -11.250  -9.750  -9.750
19 1 -11.250  -9.750  -8.250
20 1 -11.250  -9.750  -6.750
21 1 -11.250  -9.750  -5.250
22 1 -11.250  -9.750  -3.750
23 1 -11.250  -9.750  -2.250
24 1 -11.250  -9.750  -0.750
25 1 -11.250  -9.750   0.750
26 1 -11.250  -9.750   2.250
27 1 -11.250  -9.750   3.750
28 1 -11.250  -9.750   5.250
29 1 -11.250  -9.750   6.750
30 1 -11.250  -9.750   8.250
31 1 -11.250  -9.750   9.750
32 1 -11.250  -9.750  11.250
33 1 -11.250  -8.250 -11.250
34 1 -11.250  -8.250  -9.750
35 1 -11.250  -8.250  -8.250
36 1 -11.250  -8.250  -6.750
37 1 -11.250  -8.250  -5.250
38 1 -11.250  -8.250  -3.750
39 1 -11.250  -8.250  -2.250
40 1 -11.250  -8.250  -0.750
41 1 -11.250  -8.250   0.750
42 1 -11.250  -8.250   2.250
43 1 -11.250  -8.250   3.750
44 1 -11.250  -8.250   5.250
45 1 -11.250  -8.250   6.750
46 1 -11.250  -8.250   8.250
47 1 -11.250  -8.250   9.750
48 1 -11.250  -8.250  11.250
49 1 -11.250  -6.750 -11.250
50 1 -11.250  -6.750  -9.750
51 1 -11.250  -6.750  -8.250
52 1 -11.250  -6.750  -6.750
53 1 -11.250  -6.750  -5.250
54 1 -11.250  -6.750  -3.750
55 1 -11.250  -6.750  -2.250
56 1 -11.250  -6.750  -0.750
57 1 -11.250  -6.750   0.750
58 1 -11.250  -6.750   2.250
59 1 -11.250  -6.750   3.750
60 1 -11.250  -6.750   5.250
61 1 -11.250  -6.750   6.750
62 1 -11.250  -6.750   8.250
63 1 -11.250  -6.750   9.750
64 1 -11.250  -6.750  11.250
65 1 -11.250  -5.250 -11.250
66 1 -11.250  -5.250  -9.750
67 1 -11.250  -5.250  -8.250
68 1 -11.250  -5.250  -6.750
69 1 -11.250  -5.250  -5.250
70 1 -11.250  -5.250  -3.750
71 1 -11.250  -5.250  -2.250
72 1 -11.250  -5.250  -0.750
73 1 -11.250  -5.250   0.750
74 1 -11.250  -5.250   2.250
75 1 -11.250  -5.250   3.750
76 1 -11.250  -5.250   5.250
77 1 -11.250  -5.250   6.750
78 1 -11.250  -5.250   8.250
79 1 -11.250  -5.250   9.750
80 1 -11.250  -5.250  11.250
81 1 -11.250  -3.750 -11.250
82 1 -11.250  -3.750  -9.750
83 1 -11.250  -3.750  -8.250
84 1 -11.250  -3.750  -6.750
85 1 -11.250  -3.750  -5.250
86 1 -11.250  -3.750  -3.750
87 1 -11.250  -3.750  -2.250
88 1 -11.250  -3.750  -0.750
89 1 -11.250  -3.750   0.750
90 1 -11.250  -3.750   2.250
91 1 -11.250  -3.750   3.750
92 1 -11.250  -3.750   5.250
93 1 -11.250  -3.750   6.750
94 1 -11.250  -3.750   8.250
95 1 -11.250  -3.750   9.750
96 1 -11.250  -3.750  11.250
97 1 -11.250  -2.250 -11.250
98 1 -11.250  -2.250  -9.750
99 1 -11.250  -2.250  -8.250
100 1 -11.250  -2.250  -6.750
101 1 -11.250  -2.250  -5.250
102 1 -11.250  -2.250  -3.750
103 1 -11.250  -2.250  -2.250
104 1 -11.250  -2.250  -0.750
105 1 -11.250  -2.250   0.750
106 1 -11.250  -2.250   2.250
107 1 -11.250  -2.250   3.750
108 1 -11.250  -2.250   5.250
109 1 -11.250  -2.250   6.750
110 1 -11.250  -2.250   8.250
111 1 -11.250  -2.250   9.750
112 1 -11.250  -2.250  11.250
113 1 -11.250  -0.750 -11.250
114 1 -11.250  -0.750  -9.750
115 1 -11.250  -0.750  -8.250
116 1 -11.250  -0.750  -6.750
117 1 -11.250  -0.750  -5.250
118 1 -11.250  -0.750  -3.750
119 1 -11.250  -0.750  -2.250
120 1 -11.250  -0.750  -0.750
121 1 -11.250  -0.750   0.750
122 1 -11.250  -0.750   2.250
123 1 -11.250  -0.750   3.750
124 1 -11.250  -0.750   5.250
125 1 -11.250  -0.750   6.750
126 1 -11.250  -0.750   8.250
127 1 -11.250  -0.750   9.750
128 1 -11.250  -0.750  11.250
129 1 -11.250   0.750 -11.250
130 1 -11.250   0.750  -9.750
131 1 -11.250   0.750  -8.250
132 1 -11.250   0.750  -6.750
133 1 -11.250   0.750  -5.250
134 1 -11.250   0.750  -3.750
135 1 -11.250   0.750  -2.250
136 1 -11.250   0.750  -0.750
137 1 -11.250   0.750   0.750
138 1 -11.250   0.750   2.250
139 1 -11.250   0.750   3.750
140 1 -11.250   0.750   5.250
141 1 -11.250   0.750   6.750
142 1 -11.250   0.750   8.250
143 1 -11.250   0.750   9.750
144 1 -11.250   0.750  11.250
145 1 -11.250   2.250 -11.250
146 1 -11.250   2.250  -9.750
147 1 -11.250   2.250  -8.250
148 1 -11.250   2.250  -6.750
149 1 -11.250   2.250  -5.250
150 1 -11.250   2.250  -3.750
151 1 -11.250   2.250  -2.250
152 1 -11.250   2.250  -0.750
153 1 -11.250   2.250   0.750
154 1 -11.250   2.250   2.250
155 1 -11.250   2.250   3.750
156 1 -11.250   2.250   5.250
157 1 -11.250   2.250   6.750
158 1 -11.250   2.250   8.250
159 1 -11.250   2.250   9.750
160 1 -11.250   2.250  11.250
161 1 -11.250   3.750 -11.250
162 1 -11.250   3.750  -9.750
163 1 -11.250   3.750  -8.250
164 1 -11.250   3.750  -6.750
165 1 -11.250   3.750  -5.250
166 1 -11.250   3.750  -3.750
167 1 -11.250   3.750  -2.250
168 1 -11.250   3.750  -0.750
169 1 -11.250   3.750   0.750
170 1 -11.250   3.750   2.250
171 1 -11.250   3.750   3.750
172 1 -11.250   3.750   5.250
173 1 -11.250   3.750   6.750
174 1 -11.250   3.750   8.250
175 1 -11.250   3.750   9.750
176 1 -11.250   3.750  11.250
177 1 -11.250   5.250 -11.250
178 1 -11.250   5.250  -9.750
179 1 -11.250   5.250  -8.250
180 1 -11.250   5.250  -6.750
181 1 -11.250   5.250  -5.250
182 1 -11.250   5.250  -3.750
183 1 -11.250   5.250  -2.250
184 1 -11.250   5.250  -0.750
185 1 -11.250   5.250   0.750
186 1 -11.250   5.250   2.250
187 1 -11.250   5.250   3.750
188 1 -11.250   5.250   5.250
189 1 -11.250   5.250   6.750
190 1 -11.250   5.250   8.250
191 1 -11.250   5.250   9.750
192 1 -11.250   5.250  11.250
193 1 -11.250   6.750 -11.250
194 1 -11.250   6.750  -9.750
195 1 -11.250   6.750  -8.250
196 1 -11.250   6.750  -6.750
197 1 -11.250   6.750  -5.250
198 1 -11.250   6.750  -3.750
199 1 -11.250   6.750  -2.250
200 1 -11.250   6.750  -0.750
201 1 -11.250   6.750   0.750
202 1 -11.250   6.750   2.250
203 1 -11.250   6.750   3.750
204 1 -11.250   6.750   5.250
205 1 -11.250   6.750   6.750
206 1 -11.250   6.750   8.250
207 1 -11.250   6.750   9.750
208 1 -11.250   6.750  11.250
209 1 -11.250   8.250 -11.250
210 1 -11.250   8.250  -9.750
211 1 -11.250   8.250  -8.250
212 1 -11.250   8.250  -6.750
213 1 -11.250   8.250  -5.250
214 1 -11.250   8.250  -3.750
215 1 -11.250   8.250  -2.250
216 1 -11.250   8.250  -0.750
217 1 -11.250   8.250   0.750
218 1 -11.250   8.250   2.250
219 1 -11.250   8.250   3.750
220 1 -11.250   8.250   5.250
221 1 -11.250   8.250   6.750
222 1 -11.250   8.250   8.250
223 1 -11.250   8.250   9.750
224 1 -11.250   8.250  11.250
225 1 -11.250   9.750 -11.250
226 1 -11.250   9.750  -9.750
227 1 -11.250   9.750  -8.250
228 1 -11.250   9.750  -6.750
229 1 -11.250   9.750  -5.250
230 1 -11.250   9.750  -3.750
231 1 -11.250   9.750  -2.250
232 1 -11.250   9.750  -0.750
233 1 -11.250   9.750   0.750
234 1 -11.250   9.750   2.250
235 1 -11.250   9.750   3.750
236 1 -11.250   9.750   5.250
237 1 -11.250   9.750   6.750
238 1 -11.250   9.750   8.250
239 1 -11.250   9.750   9.750
240 1 -11.250   9.750  11.250
241 1 -11.250  11.250 -11.250
242 1 -11.250  11.250  -9.750
243 1 -11.250  11.250  -8.250
244 1 -11.250  11.250  -6.750
245 1 -11.250  11.250  -5.250
246 1 -11.250  11.250  -3.750
247 1 -11.250  11.250  -2.250
248 1 -11.250  11.250  -0.750
249 1 -11.250  11.250   0.750
250 1 -11.250  11.250   2.250
251 1 -11.250  11.250   3.750
252 1 -11.250  11.250   5.250
253 1 -11.250  11.250   6.750
254 1 -11.250  11.250   8.250
255 1 -11.250  11.250   9.750
256 1 -11.250  11.250  11.250
257 1  -9.750 -11.250 -11.250
258 1  -9.750 -11.250  -9.750
259 1  -9.750 -11.250  -8.250
260 1  -9.750 -11.250  -6.750
261 1  -9.750 -11.250  -5.250
262 1  -9.750 -11.250  -3.750
263 1  -9.750 -11.250  -2.250
264 1  -9.750 -11.250  -0.750
265 1  -9.750 -11.250   0.750
266 1  -9.750 -11.250   2.250
267 1  -9.750 -11.250   3.750
268 1  -9.750 -11.250   5.250
269 1  -9.750 -11.250   6.750
270 1  -9.750 -11.250   8.250
271 1  -9.750 -11.250   9.750
272 1  -9.750 -11.250  11.250
273 1  -9.750  -9.750 -11.250
274 1  -9.750  -9.750  -9.750
275 1  -9.750  -9.750  -8.250
276 1  -9.750  -9.750  -6.750
277 1  -9.750  -9.750  -5.250
278 1  -9.750  -9.750  -3.750
279 1  -9.750  -9.750  -2.250
280 1  -9.750  -9.750  -0.750
281 1  -9.750  -9.750   0.750
282 1  -9.750  -9.750   2.250
283 1  -9.750  -9.750   3.750
284 1  -9.750  -9.750   5.250
285 1  -9.750  -9.750   6.750
286 1  -9.750  -9.750   8.250
287 1  -9.750  -9.750   9.750
288 1  -9.750  -9.750  11.250
289 1  -9.750  -8.250 -11.250
290 1  -9.750  -8.250  -9.750
291 1  -9.750  -8.250  -8.250
292 1  -9.750  -8.250  -6.750
293 1  -9.750  -8.250  -5.250
294 1  -9.750  -8.250  -3.750
295 1  -9.750  -8.250  -2.250
296 1  -9.750  -8.250  -0.750
297 1  -9.750  -8.250   0.750
298 1  -9.750  -8.250   2.250
299 1  -9.750  -8.250   3.750
300 1  -9.750  -8.250   5.250
301 1  -9.750  -8.250   6.750
302 1  -9.750  -8.250   8.250
303 1  -9.750  -8.250   9.750
304 1  -9.750  -8.250  11.250
305 1  -9.750  -6.750 -11.250
306 1  -9.750  -6.750  -9.750
307 1  -9.750  -6.750  -8.250
308 1  -9.750  -6.750  -6.750
309 1  -9.750  -6.750  -5.250
310 1  -9.750  -6.750  -3.750
311 1  -9.750  -6.750  -2.250
312 1  -9.750  -6.750  -0.750
313 1  -9.750  -6.750   0.750
314 1  -9.750  -6.750   2.250
315 1  -9.750  -6.750   3.750
316 1  -9.750  -6.750   5.250
317 1  -9.750  -6.750   6.750
318 1  -9.750  -6.750   8.250
319 1  -9.750  -6.750   9.750
320 1  -9.750  -6.750  11.250
321 1  -9.750  -5.250 -11.250
322 1  -9.750  -5.250  -9.750
323 1  -9.750  -5.250  -8.250
324 1  -9.750  -5.250  -6.750
325 1  -9.750  -5.250  -5.250
326 1  -9.750  -5.250  -3.750
327 1  -9.750  -5.250  -2.250
328 1  -9.750  -5.250  -0.750
329 1  -9.750  -5.250   0.750
330 1  -9.750  -5.250   2.250
331 1  -9.750  -5.250   3.750
332 1  -9.750  -5.250   5.250
333 1  -9.750  -5.250   6.750
334 1  -9.750  -5.250   8.250
335 1  -9.750  -5.250   9.750
336 1  -9.750  -5.250  11.250
337 1  -9.750  -3.750 -11.250
338 1  -9.750  -3.750  -9.750
339 1  -9.750  -3.750  -8.250
340 1  -9.750  -3.750  -6.750
341 1  -9.750  -3.750  -5.250
342 1  -9.750  -3.750  -3.750
343 1  -9.750  -3.750  -2.250
344 1  -9.750  -3.750  -0.750
345 1  -9.750  -3.750   0.750
346 1  -9.750  -3.750   2.250
347 1  -9.750  -3.750   3.750
348 1  -9.750  -3.750   5.250
349 1  -9.750  -3.750   6.750
350 1  -9.750  -3.750   8.250
351 1  -9.750  -3.750   9.750
352 1  -9.750  -3.750  11.250
353 1  -9.750  -2.250 -11.250
354 1  -9.750  -2.250  -9.750
355 1  -9.750  -2.250  -8.250
356 1  -9.750  -2.250  -6.750
357 1  -9.750  -2.250  -5.250
358 1  -9.750  -2.250  -3.750
359 1  -9.750  -2.250  -2.250
360 1  -9.750  -2.250  -0.750
361 1  -9.750  -2.250   0.750
362 1  -9.750  -2.250   2.250
363 1  -9.750  -2.250   3.750
364 1  -9.750  -2.250   5.250
365 1  -9.750  -2.250   6.750
366 1  -9.750  -2.250   8.250
367 1  -9.750  -2.250   9.750
368 1  -9.750  -2.250  11.250
369 1  -9.750  -0.750 -11.250
370 1  -9.750  -0.750  -9.750
371 1  -9.750  -0.750  -8.250
372 1  -9.750  -0.750  -6.750
373 1  -9.750  -0.750  -5.250
374 1  -9.750  -0.750  -3.750
375 1  -9.750  -0.750  -2.250
376 1  -9.750  -0.750  -0.750
377 1  -9.750  -0.750   0.750
378 1  -9.750  -0.750   2.250
379 1  -9.750  -0.750   3.750
380 1  -9.750  -0.750   5.250
381 1  -9.750  -0.750   6.750
382 1  -9.750  -0.750   8.250
383 1  -9.750  -0.750   9.750
384 1  -9.750  -0.750  11.250
385 1  -9.750   0.750 -11.250
386 1  -9.750   0.750  -9.750
387 1  -9.750   0.750  -8.250
388 1  -9.750   0.750  -6.750
389 1  -9.750   0.750  -5.250
390 1  -9.750   0.750  -3.750
391 1  -9.750   0.750  -2.250
392 1  -9.750   0.750  -0.750
393 1  -9.750   0.750   0.750
394 1  -9.750   0.750   2.250
395 1  -9.750   0.750   3.750
396 1  -9.750   0.750   5.250
397 1  -9.750   0.750   6.750
398 1  -9.750   0.750   8.250
399 1  -9.750   0.750   9.750
400 1  -9.750   0.750  11.250
401 1  -9.750   2.250 -11.250
402 1  -9.750   2.250  -9.750
403 1  -9.750   2.250  -8.250
404 1  -9.750   2.250  -6.750
405 1  -9.750   2.250  -5.250
406 1  -9.750   2.250  -3.750
407 1  -9.750   2.250  -2.250
408 1  -9.750   2.250  -0.750
409 1  -9.750   2.250   0.750
410 1  -9.750   2.250   2.250
411 1  -9.750   2.250   3.750
412 1  -9.750   2.250   5.250
413 1  -9.750   2.250   6.750
414 1  -9.750   2.250   8.250
415 1  -9.750   2.250   9.750
416 1  -9.750   2.250  11.250
417 1  -9.750   3.750 -11.250
418 1  -9.750   3.750  -9.750
419 1  -9.750   3.750  -8.250
420 1  -9.750   3.750  -6.750
421 1  -9.750   3.750  -5.250
422 1  -9.750   3.750  -3.750
423 1  -9.750   3.750  -2.250
424 1  -9.750   3.750  -0.750
425 1  -9.750   3.750   0.750
426 1  -9.750   3.750   2.250
427 1  -9.750   3.750   3.750
428 1  -9.750   3.750   5.250
429 1  -9.750   3.750   6.750
430 1  -9.750   3.750   8.250
431 1  -9.750   3.750   9.750
432 1  -9.750   3.750  11.250
433 1  -9.750   5.250 -11.250
434 1  -9.750   5.250  -9.750
435 1  -9.750   5.250  -8.250
436 1  -9.750   5.250  -6.750
437 1  -9.750   5.250  -5.250
438 1  -9.750   5.250  -3.750
439 1  -9.750   5.250  -2.250
440 1  -9.750   5.250  -0.750
441 1  -9.750   5.250   0.750
442 1  -9.750   5.250   2.250
443 1  -9.750   5.250   3.750
444 1  -9.750   5.250   5.250
445 1  -9.750   5.250   6.750
446 1  -9.750   5.250   8.250
447 1  -9.750   5.250   9.750
448 1  -9.750   5.250  11.250
449 1  -9.750   6.750 -11.250
450 1  -9.750   6.750  -9.750
451 1  -9.750   6.750  -8.250
452 1  -9.750   6.750  -6.750
453 1  -9.750   6.750  -5.250
454 1  -9.750   6.750  -3.750
455 1  -9.750   6.750  -2.250
456 1  -9.750   6.750  -0.750
457 1  -9.750   6.750   0.750
458 1  -9.750   6.750   2.250
459 1  -9.750   6.750   3.750
460 1  -9.750   6.750   5.250
461 1  -9.750   6.750   6.750
462 1  -9.750   6.750   8.250
463 1  -9.750   6.750   9.750
464 1  -9.750   6.750  11.250
465 1  -9.750   8.250 -11.250
466 1  -9.750   8.250  -9.750
467 1  -9.750   8.250  -8.250
468 1  -9.750   8.250  -6.750
469 1  -9.750   8.250  -5.250
470 1  -9.750   8.250  -3.750
471 1  -9.750   8.250  -2.250
472 1  -9.750   8.250  -0.750
473 1  -9.750   8.250   0.750
474 1  -9.750   8.250   2.250
475 1  -9.750   8.250   3.750
476 1  -9.750   8.250   5.250
477 1  -9.750   8.250   6.750
478 1  -9.750   8.250   8.250
479 1  -9.750   8.250   9.750
480 1  -9.750   8.250  11.250
481 1  -9.750   9.750 -11.250
482 1  -9.750   9.750  -9.750
483 1  -9.750   9.750  -8.250
484 1  -9.750   9.750  -6.750
485 1  -9.750   9.750  -5.250
486 1  -9.750   9.750  -3.750
487 1  -9.750   9.750  -2.250
488 1  -9.750   9.750  -0.750
489 1  -9.750   9.750   0.750
490 1  -9.750   9.750   2.250
491 1  -9.750   9.750   3.750
492 1  -9.750   9.750   5.250
493 1  -9.750   9.750   6.750
494 1  -9.750   9.750   8.250
495 1  -9.750   9.750   9.750
496 1  -9.750   9.750  11.250
497 1  -9.750  11.250 -11.250
498 1  -9.750  11.250  -9.750
499 1  -9.750  11.250  -8.250
500 1  -9.750  11.250  -6.750
501 1  -9.750  11.250  -5.250
502 1  -9.750  11.250  -3.750
503 1  -9.750  11.250  -2.250
504 1  -9.750  11.250  -0.750
505 1  -9.750  11.250   0.750
506 1  -9.750  11.250   2.250
507 1  -9.750  11.250   3.750
508 1  -9.750  11.250   5.250
509 1  -9.750  11.250   6.750
510 1  -9.750  11.250   8.250
511 1  -9.750  11.250   9.750
512 1  -9.750  11.250  11.250
513 1  -8.250 -11.250 -11.250
514 1  -8.250 -11.250  -9.750
515 1  -8.250 -11.250  -8.250
516 1  -8.250 -11.250  -6.750
517 1  -8.250 -11.250  -5.250
518 1  -8.250 -11.250  -3.750
519 1  -8.250 -11.250  -2.250
520 1  -8.250 -11.250  -0.750
521 1  -8.250 -11.250   0.750
522 1  -8.250 -11.250   2.250
523 1  -8.250 -11.250   3.750
524 1  -8.250 -11.250   5.250
525 1  -8.250 -11.250   6.750
526 1  -8.250 -11.250   8.250
527 1  -8.250 -11.250   9.750
528 1  -8.250 -11.250  11.250
529 1  -8.250  -9.750 -11.250
530 1  -8.250  -9.750  -9.750
531 1  -8.250  -9.750  -8.250
532 1  -8.250  -9.750  -6.750
533 1  -8.250  -9.750  -5.250
534 1  -8.250  -9.750  -3.750
535 1  -8.250  -9.750  -2.250
536 1  -8.250  -9.750  -0.750
537 1  -8.250  -9.750   0.750
538 1  -8.250  -9.750   2.250
539 1  -8.250  -9.750   3.750
540 1  -8.250  -9.750   5.250
541 1  -8.250  -9.750   6.750
542 1  -8.250  -9.750   8.250
543 1  -8.250  -9.750   9.750
544 1  -8.250  -9.750  11.250
545 1  -8.250  -8.250 -11.250
546 1  -8.250  -8.250  -9.750
547 1  -8.250  -8.250  -8.250
548 1  -8.250  -8.250  -6.750
549 1  -8.250  -8.250  -5.250
550 1  -8.250  -8.250  -3.750
551 1  -8.250  -8.250  -2.250
552 1  -8.250  -8.250  -0.750
553 1  -8.250  -8.250   0.750
554 1  -8.250  -8.250   2.250
555 1  -8.250  -8.250   3.750
556 1  -8.250  -8.250   5.250
557 1  -8.250  -8.250   6.750
558 1  -8.250  -8.250   8.250
559 1  -8.250  -8.250   9.750
560 1  -8.250  -8.250  11.250
561 1  -8.250  -6.750 -11.250
562 1  -8.250  -6.750  -9.750
563 1  -8.250  -6.750  -8.250
564 1  -8.250  -6.750  -6.750
565 1  -8.250  -6.750  -5.250
566 1  -8.250  -6.750  -3.750
567 1  -8.250  -6.750  -2.250
568 1  -8.250  -6.750  -0.750
569 1  -8.250  -6.750   0.750
570 1  -8.250  -6.750   2.250
571 1  -8.250  -6.750   3.750
572 1  -8.250  -6.750   5.250
573 1  -8.250  -6.750   6.750
574 1  -8.250  -6.750   8.250
575 1  -8.250  -6.750   9.750
576 1  -8.250  -6.750  11.250
577 1  -8.250  -5.250 -11.250
578 1  -8.250  -5.250  -9.750
579 1  -8.250  -5.250  -8.250
580 1  -8.250  -5.250  -6.750
581 1  -8.250  -5.250  -5.250
582 1  -8.250  -5.250  -3.750
583 1  -8.250  -5.250  -2.250
584 1  -8.250  -5.250  -0.750
585 1  -8.250  -5.250   0.750
586 1  -8.250  -5.250   2.250
587 1  -8.250  -5.250   3.750
588 1  -8.250  -5.250   5.250
589 1  -8.250  -5.250   6.750
590 1  -8.250  -5.250   8.250
591 1  -8.250  -5.250   9.750
592 1  -8.250  -5.250  11.250
593 1  -8.250  -3.750 -11.250
594 1  -8.250  -3.750  -9.750
595 1  -8.250  -3.750  -8.250
596 1  -8.250  -3.750  -6.750
597 1  -8.250  -3.750  -5.250
598 1  -8.250  -3.750  -3.750
599 1  -8.250  -3.750  -2.250
600 1  -8.250  -3.750  -0.750
601 1  -8.250  -3.750   0.750
602 1  -8.250  -3.750   2.250
603 1  -8.250  -3.750   3.750
604 1  -8.250  -3.750   5.250
605 1  -8.250  -3.750   6.750
606 1  -8.250  -3.750   8.250
607 1  -8.250  -3.750   9.750
608 1  -8.250  -3.750  11.250
609 1  -8.250  -2.250 -11.250
610 1  -8.250  -2.250  -9.750
611 1  -8.250  -2.250  -8.250
612 1  -8.250  -2.250  -6.750
613 1  -8.250  -2.250  -5.250
614 1  -8.250  -2.250  -3.750
615 1  -8.250  -2.250  -2.250
616 1  -8.250  -2.250  -0.750
617 1  -8.250  -2.250   0.750
618 1  -8.250  -2.250   2.250
619 1  -8.250  -2.250   3.750
620 1  -8.250  -2.250   5.250
621 1  -8.250  -2.250   6.750
622 1  -8.250  -2.250   8.250
623 1  -8.250  -2.250   9.750
624 1  -8.250  -2.250  11.250
625 1  -8.250  -0.750 -11.250
626 1  -8.250  -0.750  -9.750
627 1  -8.250  -0.750  -8.250
628 1  -8.250  -0.750  -6.750
629 1  -8.250  -0.750  -5.250
630 1  -8.250  -0.750  -3.750
631 1  -8.250  -0.750  -2.250
632 1  -8.250  -0.750  -0.750
633 1  -8.250  -0.750   0.750
634 1  -8.250  -0.750   2.250
635 1  -8.250  -0.750   3.750
636 1  -8.250  -0.750   5.250
637 1  -8.250  -0.750   6.750
638 1  -8.250  -0.750   8.250
639 1  -8.250  -0.750   9.750
640 1  -8.250  -0.750  11.250
641 1  -8.250   0.750 -11.250
642 1  -8.250   0.750  -9.750
643 1  -8.250   0.750  -8.250
644 1  -8.250   0.750  -6.750
645 1  -8.250   0.750  -5.250
646 1  -8.250   0.750  -3.750
647 1  -8.250   0.750  -2.250
648 1  -8.250   0.750  -0.750
649 1  -8.250   0.750   0.750
650 1  -8.250   0.750   2.250
651 1  -8.250   0.750   3.750
652 1  -8.250   0.750   5.250
653 1  -8.250   0.750   6.750
654 1  -8.250   0.750   8.250
655 1  -8.250   0.750   9.750
656 1  -8.250   0.750  11.250
657 1  -8.250   2.250 -11.250
658 1  -8.250   2.250  -9.750
659 1  -8.250   2.250  -8.250
660 1  -8.250   2.250  -6.750
661 1  -8.250   2.250  -5.250
662 1  -8.250   2.250  -3.750
663 1  -8.250   2.250  -2.250
664 1  -8.250   2.250  -0.750
665 1  -8.250   2.250   0.750
666 1  -8.250   2.250   2.250
667 1  -8.250   2.250   3.750
668 1  -8.250   2.250   5.250
669 1  -8.250   2.250   6.750
670 1  -8.250   2.250   8.250
671 1  -8.250   2.250   9.750
672 1  -8.250   2.250  11.250
673 1  -8.250   3.750 -11.250
674 1  -8.250   3.750  -9.750
675 1  -8.250   3.750  -8.250
676 1  -8.250   3.750  -6.750
677 1  -8.250   3.750  -5.250
678 1  -8.250   3.750  -3.750
679 1  -8.250   3.750  -2.250
680 1  -8.250   3.750  -0.750
681 1  -8.250   3.750   0.750
682 1  -8.250   3.750   2.250
683 1  -8.250   3.750   3.750
684 1  -8.250   3.750   5.250
685 1  -8.250   3.750   6.750
686 1  -8.250   3.750   8.250
687 1  -8.250   3.750   9.750
688 1  -8.250   3.750  11.250
689 1  -8.250   5.250 -11.250
690 1  -8.250   5.250  -9.750
691 1  -8.250   5.250  -8.250
692 1  -8.250   5.250  -6.750
693 1  -8.250   5.250  -5.250
694 1  -8.250   5.250  -3.750
695 1  -8.250   5.250  -2.250
696 1  -8.250   5.250  -0.750
697 1  -8.250   5.250   0.750
698 1  -8.250   5.250   2.250
699 1  -8.250   5.250   3.750
700 1  -8.250   5.250   5.250
701 1  -8.250   5.250   6.750
702 1  -8.250   5.250   8.250
703 1  -8.250   5.250   9.750
704 1  -8.250   5.250  11.250
705 1  -8.250   6.750 -11.250
706 1  -8.250   6.750  -9.750
707 1  -8.250   6.750  -8.250
708 1  -8.250   6.750  -6.750
709 1  -8.250   6.750  -5.250
710 1  -8.250   6.750  -3.750
711 1  -8.250   6.750  -2.250
712 1  -8.250   6.750  -0.750
713 1  -8.250   6.750   0.750
714 1  -8.250   6.750   2.250
715 1  -8.250   6.750   3.750
716 1  -8.250   6.750   5.250
717 1  -8.250   6.750   6.750
718 1  -8.250   6.750   8.250
719 1  -8.250   6.750   9.750
720 1  -8.250   6.750  11.250
721 1  -8.250   8.250 -11.250
722 1  -8.250   8.250  -9.750
723 1  -8.250   8.250  -8.250
724 1  -8.250   8.250  -6.750
725 1  -8.250   8.250  -5.250
726 1  -8.250   8.250  -3.750
727 1  -8.250   8.250  -2.250
728 1  -8.250   8.250  -0.750
729 1  -8.250   8.250   0.750
730 1  -8.250   8.250   2.250
731 1  -8.250   8.250   3.750
732 1  -8.250   8.250   5.250
733 1  -8.250   8.250   6.750
734 1  -8.250   8.250   8.250
735 1  -8.250   8.250   9.750
736 1  -8.250   8.250  11.250
737 1  -8.250   9.750 -11.250
738 1  -8.250   9.750  -9.750
739 1  -8.250   9.750  -8.250
740 1  -8.250   9.750  -6.750
741 1  -8.250   9.750  -5.250
742 1  -8.250   9.750  -3.750
743 1  -8.250   9.750  -2.250
744 1  -8.250   9.750  -0.750
745 1  -8.250   9.750   0.750
746 1  -8.250   9.750   2.250
747 1  -8.250   9.750   3.750
748 1  -8.250   9.750   5.250
749 1  -8.250   9.750   6.750
750 1  -8.250   9.750   8.250
751 1  -8.250   9.750   9.750
752 1  -8.250   9.750  11.250
753 1  -8.250  11.250 -11.250
754 1  -8.250  11.250  -9.750
755 1  -8.250  11.250  -8.250
756 1  -8.250  11.250  -6.750
757 1  -8.250  11.250  -5.250
758 1  -8.250  11.250  -3.750
759 1  -8.250  11.250  -2.250
760 1  -8.250  11.250  -0.750
761 1  -8.250  11.250   0.750
762 1  -8.250  11.250   2.250
763 1  -8.250  11.250   3.750
764 1  -8.250  11.250   5.250
765 1  -8.250  11.250   6.750
766 1  -8.250  11.250   8.250
767 1  -8.250  11.250   9.750
768 1  -8.250  11.250  11.250
769 1  -6.750 -11.250 -11.250
770 1  -6.750 -11.250  -9.750
771 1  -6.750 -11.250  -8.250
772 1  -6.750 -11.250  -6.750
773 1  -6.750 -11.250  -5.250
774 1  -6.750 -11.250  -3.750
775 1  -6.750 -11.250  -2.250
776 1  -6.750 -11.250  -0.750
777 1  -6.750 -11.250   0.750
778 1  -6.750 -11.250   2.250
779 1  -6.750 -11.250   3.750
780 1  -6.750 -11.250   5.250
781 1  -6.750 -11.250   6.750
782 1  -6.750 -11.250   8.250
783 1  -6.750 -11.250   9.750
784 1  -6.750 -11.250  11.250
785 1  -6.750  -9.750 -11.250
786 1  -6.750  -9.750  -9.750
787 1  -6.750  -9.750  -8.250
788 1  -6.750  -9.750  -6.750
789 1  -6.750  -9.750  -5.250
790 1  -6.750  -9.750  -3.750
791 1  -6.750  -9.750  -2.250
792 1  -6.750  -9.750  -0.750
793 1  -6.750  -9.750   0.750
794 1  -6.750  -9.750   2.250
795 1  -6.750  -9.750   3.750
796 1  -6.750  -9.750   5.250
797 1  -6.750  -9.750   6.750
798 1  -6.750  -9.750   8.250
799 1  -6.750  -9.750   9.750
800 1  -6.750  -9.750  11.250
801 1  -6.750  -8.250 -11.250
802 1  -6.750  -8.250  -9.750
803 1  -6.750  -8.250  -8.250
804 1  -6.750  -8.250  -6.750
805 1  -6.750  -8.250  -5.250
806 1  -6.750  -8.250  -3.750
807 1  -6.750  -8.250  -2.250
808 1  -6.750  -8.250  -0.750
809 1  -6.750  -8.250   0.750
810 1  -6.750  -8.250   2.250
811 1  -6.750  -8.250   3.750
812 1  -6.750  -8.250   5.250
813 1  -6.750  -8.250   6.750
814 1  -6.750  -8.250   8.250
815 1  -6.750  -8.250   9.750
816 1  -6.750  -8.250  11.250
817 1  -6.750  -6.750 -11.250
818 1  -6.750  -6.750  -9.750
819 1  -6.750  -6.750  -8.250
820 1  -6.750  -6.750  -6.750
821 1  -6.750  -6.750  -5.250
822 1  -6.750  -6.750  -3.750
823 1  -6.750  -6.750  -2.250
824 1  -6.750  -6.750  -0.750
825 1  -6.750  -6.750   0.750
826 1  -6.750  -6.750   2.250
827 1  -6.750  -6.750   3.750
828 1  -6.750  -6.750   5.250
829 1  -6.750  -6.750   6.750
830 1  -6.750  -6.750   8.250
831 1  -6.750  -6.750   9.750
832 1  -6.750  -6.750  11.250
833 1  -6.750  -5.250 -11.250
834 1  -6.750  -5.250  -9.750
835 1  -6.750  -5.250  -8.250
836 1  -6.750  -5.250  -6.750
837 1  -6.750  -5.250  -5.250
838 1  -6.750  -5.250  -3.750
839 1  -6.750  -5.250  -2.250
840 1  -6.750  -5.250  -0.750
841 1  -6.750  -5.250   0.750
842 1  -6.750  -5.250   2.250
843 1  -6.750  -5.250   3.750
844 1  -6.750  -5.250   5.250
845 1  -6.750  -5.250   6.750
846 1  -6.750  -5.250   8.250
847 1  -6.750  -5.250   9.750
848 1  -6.750  -5.250  11.250
849 1  -6.750  -3.750 -11.250
850 1  -6.750  -3.750  -9.750
851 1  -6.750  -3.750  -8.250
852 1  -6.750  -3.750  -6.750
853 1  -6.750  -3.750  -5.250
854 1  -6.750  -3.750  -3.750
855 1  -6.750  -3.750  -2.250
856 1  -6.750  -3.750  -0.750
857 1  -6.750  -3.750   0.750
858 1  -6.750  -3.750   2.250
859 1  -6.750  -3.750   3.750
860 1  -6.750  -3.750   5.250
861 1  -6.750  -3.750   6.750
862 1  -6.750  -3.750   8.250
863 1  -6.750  -3.750   9.750
864 1  -6.750  -3.750  11.250
865 1  -6.750  -2.250 -11.250
866 1  -6.750  -2.250  -9.750
867 1  -6.750  -2.250  -8.250
868 1  -6.750  -2.250  -6.750
869 1  -6.750  -2.250  -5.250
870 1  -6.750  -2.250  -3.750
871 1  -6.750  -2.250  -2.250
872 1  -6.750  -2.250  -0.750
873 1  -6.750  -2.250   0.750
874 1  -6.750  -2.250   2.250
875 1  -6.750  -2.250   3.750
876 1  -6.750  -2.250   5.250
877 1  -6.750  -2.250   6.750
878 1  -6.750  -2.250   8.250
879 1  -6.750  -2.250   9.750
880 1  -6.750  -2.250  11.250
881 1  -6.750  -0.750 -11.250
882 1  -6.750  -0.750  -9.750
883 1  -6.750  -0.750  -8.250
884 1  -6.750  -0.750  -6.750
885 1  -6.750  -0.750  -5.250
886 1  -6.750  -0.750  -3.750
887 1  -6.750  -0.750  -2.250
888 1  -6.750  -0.750  -0.750
889 1  -6.750  -0.750   0.750
890 1  -6.750  -0.750   2.250
891 1  -6.750  -0.750   3.750
892 1  -6.750  -0.750   5.250
893 1  -6.750  -0.750   6.750
894 1  -6.750  -0.750   8.250
895 1  -6.750  -0.750   9.750
896 1  -6.750  -0.750  11.250
897 1  -6.750   0.750 -11.250
898 1  -6.750   0.750  -9.750
899 1  -6.750   0.750  -8.250
900 1  -6.750   0.750  -6.750
901 1  -6.750   0.750  -5.250
902 1  -6.750   0.750  -3.750
903 1  -6.750   0.750  -2.250
904 1  -6.750   0.750  -0.750
905 1  -6.750   0.750   0.750
906 1  -6.750   0.750   2.250
907 1  -6.750   0.750   3.750
908 1  -6.750   0.750   5.250
909 1  -6.750   0.750   6.750
910 1  -6.750   0.750   8.250
911 1  -6.750   0.750   9.750
912 1  -6.750   0.750  11.250
913 1  -6.750   2.250 -11.250
914 1  -6.750   2.250  -9.750
915 1  -6.750   2.250  -8.250
916 1  -6.750   2.250  -6.750
917 1  -6.750   2.250  -5.250
918 1  -6.750   2.250  -3.750
919 1  -6.750   2.250  -2.250
920 1  -6.750   2.250  -0.750
921 1  -6.750   2.250   0.750
922 1  -6.750   2.250   2.250
923 1  -6.750   2.250   3.750
924 1  -6.750   2.250   5.250
925 1  -6.750   2.250   6.750
926 1  -6.750   2.250   8.250
927 1  -6.750   2.250   9.750
928 1  -6.750   2.250  11.250
929 1  -6.750   3.750 -11.250
930 1  -6.750   3.750  -9.750
931 1  -6.750   3.750  -8.250
932 1  -6.750   3.750  -6.750
933 1  -6.750   3.750  -5.250
934 1  -6.750   3.750  -3.750
935 1  -6.750   3.750  -2.250
936 1  -6.750   3.750  -0.750
937 1  -6.750   3.750   0.750
938 1  -6.750   3.750   2.250
939 1  -6.750   3.750   3.750
940 1  -6.750   3.750   5.250
941 1  -6.750   3.750   6.750
942 1  -6.750   3.750   8.250
943 1  -6.750   3.750   9.750
944 1  -6.750   3.750  11.250
945 1  -6.750   5.250 -11.250
946 1  -6.750   5.250  -9.750
947 1  -6.750   5.250  -8.250
948 1  -6.750   5.250  -6.750
949 1  -6.750   5.250  -5.250
950 1  -6.750   5.250  -3.750
951 1  -6.750   5.250  -2.250
952 1  -6.750   5.250  -0.750
953 1  -6.750   5.250   0.750
954 1  -6.750   5.250   2.250
955 1  -6.750   5.250   3.750
956 1  -6.750   5.250   5.250
957 1  -6.750   5.250   6.750
958 1  -6.750   5.250   8.250
959 1  -6.750   5.250   9.750
960 1  -6.750   5.250  11.250
961 1  -6.750   6.750 -11.250
962 1  -6.750   6.750  -9.750
963 1  -6.750   6.750  -8.250
964 1  -6.750   6.750  -6.750
965 1  -6.750   6.750  -5.250
966 1  -6.750   6.750  -3.750
967 1  -6.750   6.750  -2.250
968 1  -6.750   6.750  -0.750
969 1  -6.750   6.750   0.750
970 1  -6.750   6.750   2.250
971 1  -6.750   6.750   3.750
972 1  -6.750   6.750   5.250
973 1  -6.750   6.750   6.750
974 1  -6.750   6.750   8.250
975 1  -6.750   6.750   9.750
976 1  -6.750   6.750  11.250
977 1  -6.750   8.250 -11.250
978 1  -6.750   8.250  -9.750
979 1  -6.750   8.250  -8.250
980 1  -6.750   8.250  -6.750
981 1  -6.750   8.250  -5.250
982 1  -6.750   8.250  -3.750
983 1  -6.750   8.250  -2.250
984 1  -6.750   8.250  -0.750
985 1  -6.750   8.250   0.750
986 1  -6.750   8.250   2.250
987 1  -6.750   8.250   3.750
988 1  -6.750   8.250   5.250
989 1  -6.750   8.250   6.750
990 1  -6.750   8.250   8.250
991 1  -6.750   8.250   9.750
992 1  -6.750   8.250  11.250
993 1  -6.750   9.750 -11.250
994 1  -6.750   9.750  -9.750
995 1  -6.750   9.750  -8.250
996 1  -6.750   9.750  -6.750
997 1  -6.750   9.750  -5.250
998 1  -6.750   9.750  -3.750