ITEM: TIMESTEP
0
ITEM: NUMBER OF ATOMS
4096
ITEM: BOX BOUNDS pp pp pp
-1.2000000000000000e+01 1.2000000000000000e+01
-1.2000000000000000e+01 1.2000000000000000e+01
-1.2000000000000000e+01 1.2000000000000000e+01
ITEM: ATOMS id type xs ys zs
1 1 0.03125 0.03125 0.03125
257 1 0.09375 0.03125 0.03125
513 1 0.15625 0.03125 0.03125
769 1 0.21875 0.03125 0.03125
1025 1 0.28125 0.03125 0.03125
1281 1 0.34375 0.03125 0.03125
1537 1 0.40625 0.03125 0.03125
1793 1 0.46875 0.03125 0.03125
2049 1 0.53125 0.03125 0.03125
2305 1 0.59375 0.03125 0.03125
2561 1 0.65625 0.03125 0.03125
2817 1 0.71875 0.03125 0.03125
3073 1 0.78125 0.03125 0.03125
3329 1 0.84375 0.03125 0.03125
3585 1 0.90625 0.03125 0.03125
3841 1 0.96875 0.03125 0.03125
17 1 0.03125 0.09375 0.03125
273 1 0.09375 0.09375 0.03125
529 1 0.15625 0.09375 0.03125
785 1 0.21875 0.09375 0.03125
1041 1 0.28125 0.09375 0.03125
1297 1 0.34375 0.09375 0.03125
1553 1 0.40625 0.09375 0.03125
1809 1 0.46875 0.09375 0.03125
2065 1 0.53125 0.09375 0.03125
2321 1 0.59375 0.09375 0.03125
2577 1 0.65625 0.09375 0.03125
2833 1 0.71875 0.09375 0.03125
3089 1 0.78125 0.09375 0.03125
3345 1 0.84375 0.09375 0.03125
3601 1 0.90625 0.09375 0.03125
3857 1 0.96875 0.09375 0.03125
33 1 0.03125 0.15625 0.03125
289 1 0.09375 0.15625 0.03125
545 1 0.15625 0.15625 0.03125
801 1 0.21875 0.15625 0.03125
1057 1 0.28125 0.15625 0.03125
1313 1 0.34375 0.15625 0.03125
1569 1 0.40625 0.15625 0.03125
1825 1 0.46875 0.15625 0.03125
2081 1 0.53125 0.15625 0.03125
2337 1 0.59375 0.15625 0.03125
2593 1 0.65625 0.15625 0.03125
2849 1 0.71875 0.15625 0.03125
3105 1 0.78125 0.15625 0.03125
3361 1 0.84375 0.15625 0.03125
3617 1 0.90625 0.15625 0.03125
3873 1 0.96875 0.15625 0.03125
49 1 0.03125 0.21875 0.03125
65 1 0.03125 0.28125 0.03125
305 1 0.09375 0.21875 0.03125
321 1 0.09375 0.28125 0.03125
561 1 0.15625 0.21875 0.03125
577 1 0.15625 0.28125 0.03125
817 1 0.21875 0.21875 0.03125
833 1 0.21875 0.28125 0.03125
1073 1 0.28125 0.21875 0.03125
1089 1 0.28125 0.28125 0.03125
1329 1 0.34375 0.21875 0.03125
1345 1 0.34375 0.28125 0.03125
1585 1 0.40625 0.21875 0.03125
1601 1 0.40625 0.28125 0.03125
1841 1 0.46875 0.21875 0.03125
1857 1 0.46875 0.28125 0.03125
2097 1 0.53125 0.21875 0.03125
2113 1 0.53125 0.28125 0.03125
2353 1 0.59375 0.21875 0.03125
2369 1 0.59375 0.28125 0.03125
2609 1 0.65625 0.21875 0.03125
2625 1 0.65625 0.28125 0.03125
2865 1 0.71875 0.21875 0.03125
2881 1 0.71875 0.28125 0.03125
3121 1 0.78125 0.21875 0.03125
3137 1 0.78125 0.28125 0.03125
3377 1 0.84375 0.21875 0.03125
3393 1 0.84375 0.28125 0.03125
3633 1 0.90625 0.21875 0.03125
3649 1 0.90625 0.28125 0.03125
3889 1 0.96875 0.21875 0.03125
3905 1 0.96875 0.28125 0.03125
81 1 0.03125 0.34375 0.03125
337 1 0.09375 0.34375 0.03125
593 1 0.15625 0.34375 0.03125
849 1 0.21875 0.34375 0.03125
1105 1 0.28125 0.34375 0.03125
1361 1 0.34375 0.34375 0.03125
1617 1 0.40625 0.34375 0.03125
1873 1 0.46875 0.34375 0.03125
2129 1 0.53125 0.34375 0.03125
2385 1 0.59375 0.34375 0.03125
2641 1 0.65625 0.34375 0.03125
2897 1 0.71875 0.34375 0.03125
3153 1 0.78125 0.34375 0.03125
3409 1 0.84375 0.34375 0.03125
3665 1 0.90625 0.34375 0.03125
3921 1 0.96875 0.34375 0.03125
97 1 0.03125 0.40625 0.03125
353 1 0.09375 0.40625 0.03125
609 1 0.15625 0.40625 0.03125
865 1 0.21875 0.40625 0.03125
1121 1 0.28125 0.40625 0.03125
1377 1 0.34375 0.40625 0.03125
1633 1 0.40625 0.40625 0.03125
1889 1 0.46875 0.40625 0.03125
2145 1 0.53125 0.40625 0.03125
2401 1 0.59375 0.40625 0.03125
2657 1 0.65625 0.40625 0.03125
2913 1 0.71875 0.40625 0.03125
3169 1 0.78125 0.40625 0.03125
3425 1 0.84375 0.40625 0.03125
3681 1 0.90625 0.40625 0.03125
3937 1 0.96875 0.40625 0.03125
113 1 0.03125 0.46875 0.03125
369 1 0.09375 0.46875 0.03125
625 1 0.15625 0.46875 0.03125
881 1 0.21875 0.46875 0.03125
1137 1 0.28125 0.46875 0.03125
1393 1 0.34375 0.46875 0.03125
1649 1 0.40625 0.46875 0.03125
1905 1 0.46875 0.46875 0.03125
2161 1 0.53125 0.46875 0.03125
2417 1 0.59375 0.46875 0.03125
2673 1 0.65625 0.46875 0.03125
2929 1 0.71875 0.46875 0.03125
3185 1 0.78125 0.46875 0.03125
3441 1 0.84375 0.46875 0.03125
3697 1 0.90625 0.46875 0.03125
3953 1 0.96875 0.46875 0.03125
129 1 0.03125 0.53125 0.03125
385 1 0.09375 0.53125 0.03125
641 1 0.15625 0.53125 0.03125
897 1 0.21875 0.53125 0.03125
1153 1 0.28125 0.53125 0.03125
1409 1 0.34375 0.53125 0.03125
1665 1 0.40625 0.53125 0.03125
1921 1 0.46875 0.53125 0.03125
2177 1 0.53125 0.53125 0.03125
2433 1 0.59375 0.53125 0.03125
2689 1 0.65625 0.53125 0.03125
2945 1 0.71875 0.53125 0.03125
3201 1 0.78125 0.53125 0.03125
3457 1 0.84375 0.53125 0.03125
3713 1 0.90625 0.53125 0.03125
3969 1 0.96875 0.53125 0.03125
145 1 0.03125 0.59375 0.03125
401 1 0.09375 0.59375 0.03125
657 1 0.15625 0.59375 0.03125
913 1 0.21875 0.59375 0.03125
1169 1 0.28125 0.59375 0.03125
1425 1 0.34375 0.59375 0.03125
1681 1 0.40625 0.59375 0.03125
1937 1 0.46875 0.59375 0.03125
2193 1 0.53125 0.59375 0.03125
2449 1 0.59375 0.59375 0.03125
2705 1 0.65625 0.59375 0.03125
2961 1 0.71875 0.59375 0.03125
3217 1 0.78125 0.59375 0.03125
3473 1 0.84375 0.59375 0.03125
3729 1 0.90625 0.59375 0.03125
3985 1 0.96875 0.59375 0.03125
161 1 0.03125 0.65625 0.03125
417 1 0.09375 0.65625 0.03125
673 1 0.15625 0.65625 0.03125
929 1 0.21875 0.65625 0.03125
1185 1 0.28125 0.65625 0.03125
1441 1 0.34375 0.65625 0.03125
1697 1 0.40625 0.65625 0.03125
1953 1 0.46875 0.65625 0.03125
2209 1 0.53125 0.65625 0.03125
2465 1 0.59375 0.65625 0.03125
2721 1 0.65625 0.65625 0.03125
2977 1 0.71875 0.65625 0.03125
3233 1 0.78125 0.65625 0.03125
3489 1 0.84375 0.65625 0.03125
3745 1 0.90625 0.65625 0.03125
4001 1 0.96875 0.65625 0.03125
177 1 0.03125 0.71875 0.03125
193 1 0.03125 0.78125 0.03125
433 1 0.09375 0.71875 0.03125
449 1 0.09375 0.78125 0.03125
689 1 0.15625 0.71875 0.03125
705 1 0.15625 0.78125 0.03125
945 1 0.21875 0.71875 0.03125
961 1 0.21875 0.78125 0.03125
1201 1 0.28125 0.71875 0.03125
1217 1 0.28125 0.78125 0.03125
1457 1 0.34375 0.71875 0.03125
1473 1 0.34375 0.78125 0.03125
1713 1 0.40625 0.71875 0.03125
1729 1 0.40625 0.78125 0.03125
1969 1 0.46875 0.71875 0.03125
1985 1 0.46875 0.78125 0.03125
2225 1 0.53125 0.71875 0.03125
2241 1 0.53125 0.78125 0.03125
2481 1 0.59375 0.71875 0.03125
2497 1 0.59375 0.78125 0.03125
2737 1 0.65625 0.71875 0.03125
2753 1 0.65625 0.78125 0.03125
2993 1 0.71875 0.71875 0.03125
3009 1 0.71875 0.78125 0.03125
3249 1 0.78125 0.71875 0.03125
3265 1 0.78125 0.78125 0.03125
3505 1 0.84375 0.71875 0.03125
3521 1 0.84375 0.78125 0.03125
3761 1 0.90625 0.71875 0.03125
3777 1 0.90625 0.78125 0.03125
4017 1 0.96875 0.71875 0.03125
4033 1 0.96875 0.78125 0.03125
209 1 0.03125 0.84375 0.03125
465 1 0.09375 0.84375 0.03125
721 1 0.15625 0.84375 0.03125
977 1 0.21875 0.84375 0.03125
1233 1 0.28125 0.84375 0.03125
1489 1 0.34375 0.84375 0.03125
1745 1 0.40625 0.84375 0.03125
2001 1 0.46875 0.84375 0.03125
2257 1 0.53125 0.84375 0.03125
2513 1 0.59375 0.84375 0.03125
2769 1 0.65625 0.84375 0.03125
3025 1 0.71875 0.84375 0.03125
3281 1 0.78125 0.84375 0.03125
3537 1 0.84375 0.84375 0.03125
3793 1 0.90625 0.84375 0.03125
4049 1 0.96875 0.84375 0.03125
225 1 0.03125 0.90625 0.03125
481 1 0.09375 0.90625 0.03125
737 1 0.15625 0.90625 0.03125
993 1 0.21875 0.90625 0.03125
1249 1 0.28125 0.90625 0.03125
1505 1 0.34375 0.90625 0.03125
1761 1 0.40625 0.90625 0.03125
2017 1 0.46875 0.90625 0.03125
2273 1 0.53125 0.90625 0.03125
2529 1 0.59375 0.90625 0.03125
2785 1 0.65625 0.90625 0.03125
3041 1 0.71875 0.90625 0.03125
3297 1 0.78125 0.90625 0.03125
3553 1 0.84375 0.90625 0.03125
3809 1 0.90625 0.90625 0.03125
4065 1 0.96875 0.90625 0.03125
241 1 0.03125 0.96875 0.03125
497 1 0.09375 0.96875 0.03125
753 1 0.15625 0.96875 0.03125
1009 1 0.21875 0.96875 0.03125
1265 1 0.28125 0.96875 0.03125
1521 1 0.34375 0.96875 0.03125
1777 1 0.40625 0.96875 0.03125
2033 1 0.46875 0.96875 0.03125
2289 1 0.53125 0.96875 0.03125
2545 1 0.59375 0.96875 0.03125
2801 1 0.65625 0.96875 0.03125
3057 1 0.71875 0.96875 0.03125
3313 1 0.78125 0.96875 0.03125
3569 1 0.84375 0.96875 0.03125
3825 1 0.90625 0.96875 0.03125
4081 1 0.96875 0.96875 0.03125
2 1 0.03125 0.03125 0.09375
258 1 0.09375 0.03125 0.09375
514 1 0.15625 0.03125 0.09375
770 1 0.21875 0.03125 0.09375
1026 1 0.28125 0.03125 0.09375
1282 1 0.34375 0.03125 0.09375
1538 1 0.40625 0.03125 0.09375
1794 1 0.46875 0.03125 0.09375
2050 1 0.53125 0.03125 0.09375
2306 1 0.59375 0.03125 0.09375
2562 1 0.65625 0.03125 0.09375
2818 1 0.71875 0.03125 0.09375
3074 1 0.78125 0.03125 0.09375
3330 1 0.84375 0.03125 0.09375
3586 1 0.90625 0.03125 0.09375
3842 1 0.96875 0.03125 0.09375
18 1 0.03125 0.09375 0.09375
274 1 0.09375 0.09375 0.09375
530 1 0.15625 0.09375 0.09375
786 1 0.21875 0.09375 0.09375
1042 1 0.28125 0.09375 0.09375
1298 1 0.34375 0.09375 0.09375
1554 1 0.40625 0.09375 0.09375
1810 1 0.46875 0.09375 0.09375
2066 1 0.53125 0.09375 0.09375
2322 1 0.59375 0.09375 0.09375
2578 1 0.65625 0.09375 0.09375
2834 1 0.71875 0.09375 0.09375
3090 1 0.78125 0.09375 0.09375
3346 1 0.84375 0.09375 0.09375
3602 1 0.90625 0.09375 0.09375
3858 1 0.96875 0.09375 0.09375
34 1 0.03125 0.15625 0.09375
290 1 0.09375 0.15625 0.09375
546 1 0.15625 0.15625 0.09375
802 1 0.21875 0.15625 0.09375
1058 1 0.28125 0.15625 0.09375
1314 1 0.34375 0.15625 0.09375
1570 1 0.40625 0.15625 0.09375
1826 1 0.46875 0.15625 0.09375
2082 1 0.53125 0.15625 0.09375
2338 1 0.59375 0.15625 0.09375
2594 1 0.65625 0.15625 0.09375
2850 1 0.71875 0.15625 0.09375
3106 1 0.78125 0.15625 0.09375
3362 1 0.84375 0.15625 0.09375
3618 1 0.90625 0.15625 0.09375
3874 1 0.96875 0.15625 0.09375
50 1 0.03125 0.21875 0.09375
66 1 0.03125 0.28125 0.09375
306 1 0.09375 0.21875 0.09375
322 1 0.09375 0.28125 0.09375
562 1 0.15625 0.21875 0.09375
578 1 0.15625 0.28125 0.09375
818 1 0.21875 0.21875 0.09375
834 1 0.21875 0.28125 0.09375
1074 1 0.28125 0.21875 0.09375
1090 1 0.28125 0.28125 0.09375
1330 1 0.34375 0.21875 0.09375
1346 1 0.34375 0.28125 0.09375
1586 1 0.40625 0.21875 0.09375
1602 1 0.40625 0.28125 0.09375
1842 1 0.46875 0.21875 0.09375
1858 1 0.46875 0.28125 0.09375
2098 1 0.53125 0.21875 0.09375
2114 1 0.53125 0.28125 0.09375
2354 1 0.59375 0.21875 0.09375
2370 1 0.59375 0.28125 0.09375
2610 1 0.65625 0.21875 0.09375
2626 1 0.65625 0.28125 0.09375
2866 1 0.71875 0.21875 0.09375
2882 1 0.71875 0.28125 0.09375
3122 1 0.78125 0.21875 0.09375
3138 1 0.78125 0.28125 0.09375
3378 1 0.84375 0.21875 0.09375
3394 1 0.84375 0.28125 0.09375
3634 1 0.90625 0.21875 0.09375
3650 1 0.90625 0.28125 0.09375
3890 1 0.96875 0.21875 0.09375
3906 1 0.96875 0.28125 0.09375
82 1 0.03125 0.34375 0.09375
338 1 0.09375 0.34375 0.09375
594 1 0.15625 0.34375 0.09375
850 1 0.21875 0.34375 0.09375
1106 1 0.28125 0.34375 0.09375
1362 1 0.34375 0.34375 0.09375
1618 1 0.40625 0.34375 0.09375
1874 1 0.46875 0.34375 0.09375
2130 1 0.53125 0.34375 0.09375
2386 1 0.59375 0.34375 0.09375
2642 1 0.65625 0.34375 0.09375
2898 1 0.71875 0.34375 0.09375
3154 1 0.78125 0.34375 0.09375
3410 1 0.84375 0.34375 0.09375
3666 1 0.90625 0.34375 0.09375
3922 1 0.96875 0.34375 0.09375
98 1 0.03125 0.40625 0.09375
354 1 0.09375 0.40625 0.09375
610 1 0.15625 0.40625 0.09375
866 1 0.21875 0.40625 0.09375
1122 1 0.28125 0.40625 0.09375
1378 1 0.34375 0.40625 0.09375
1634 1 0.40625 0.40625 0.09375
1890 1 0.46875 0.40625 0.09375
2146 1 0.53125 0.40625 0.09375
2402 1 0.59375 0.40625 0.09375
2658 1 0.65625 0.40625 0.09375
2914 1 0.71875 0.40625 0.09375
3170 1 0.78125 0.40625 0.09375
3426 1 0.84375 0.40625 0.09375
3682 1 0.90625 0.40625 0.09375
3938 1 0.96875 0.40625 0.09375
114 1 0.03125 0.46875 0.09375
370 1 0.09375 0.46875 0.09375
626 1 0.15625 0.46875 0.09375
882 1 0.21875 0.46875 0.09375
1138 1 0.28125 0.46875 0.09375
1394 1 0.34375 0.46875 0.09375
1650 1 0.40625 0.46875 0.09375
1906 1 0.46875 0.46875 0.09375
2162 1 0.53125 0.46875 0.09375
2418 1 0.59375 0.46875 0.09375
2674 1 0.65625 0.46875 0.09375
2930 1 0.71875 0.46875 0.09375
3186 1 0.78125 0.46875 0.09375
3442 1 0.84375 0.46875 0.09375
3698 1 0.90625 0.46875 0.09375
3954 1 0.96875 0.46875 0.09375
130 1 0.03125 0.53125 0.09375
386 1 0.09375 0.53125 0.09375
642 1 0.15625 0.53125 0.09375
898 1 0.21875 0.53125 0.09375
1154 1 0.28125 0.53125 0.09375
1410 1 0.34375 0.53125 0.09375
1666 1 0.40625 0.53125 0.09375
1922 1 0.46875 0.53125 0.09375
2178 1 0.53125 0.53125 0.09375
2434 1 0.59375 0.53125 0.09375
2690 1 0.65625 0.53125 0.09375
2946 1 0.71875 0.53125 0.09375
3202 1 0.78125 0.53125 0.09375
3458 1 0.84375 0.53125 0.09375
3714 1 0.90625 0.53125 0.09375
3970 1 0.96875 0.53125 0.09375
146 1 0.03125 0.59375 0.09375
402 1 0.09375 0.59375 0.09375
658 1 0.15625 0.59375 0.09375
914 1 0.21875 0.59375 0.09375
1170 1 0.28125 0.59375 0.09375
1426 1 0.34375 0.59375 0.09375
1682 1 0.40625 0.59375 0.09375
1938 1 0.46875 0.59375 0.09375
2194 1 0.53125 0.59375 0.09375
2450 1 0.59375 0.59375 0.09375
2706 1 0.65625 0.59375 0.09375
2962 1 0.71875 0.59375 0.09375
3218 1 0.78125 0.59375 0.09375
3474 1 0.84375 0.59375 0.09375
3730 1 0.90625 0.59375 0.09375
3986 1 0.96875 0.59375 0.09375
162 1 0.03125 0.65625 0.09375
418 1 0.09375 0.65625 0.09375
674 1 0.15625 0.65625 0.09375
930 1 0.21875 0.65625 0.09375
1186 1 0.28125 0.65625 0.09375
1442 1 0.34375 0.65625 0.09375
1698 1 0.40625 0.65625 0.09375
1954 1 0.46875 0.65625 0.09375
2210 1 0.53125 0.65625 0.09375
2466 1 0.59375 0.65625 0.09375
2722 1 0.65625 0.65625 0.09375
2978 1 0.71875 0.65625 0.09375
3234 1 0.78125 0.65625 0.09375
3490 1 0.84375 0.65625 0.09375
3746 1 0.90625 0.65625 0.09375
4002 1 0.96875 0.65625 0.09375
178 1 0.03125 0.71875 0.09375
194 1 0.03125 0.78125 0.09375
434 1 0.09375 0.71875 0.09375
450 1 0.09375 0.78125 0.09375
690 1 0.15625 0.71875 0.09375
706 1 0.15625 0.78125 0.09375
946 1 0.21875 0.71875 0.09375
962 1 0.21875 0.78125 0.09375
1202 1 0.28125 0.71875 0.09375
1218 1 0.28125 0.78125 0.09375
1458 1 0.34375 0.71875 0.09375
1474 1 0.34375 0.78125 0.09375
1714 1 0.40625 0.71875 0.09375
1730 1 0.40625 0.78125 0.09375
1970 1 0.46875 0.71875 0.09375
1986 1 0.46875 0.78125 0.09375
2226 1 0.53125 0.71875 0.09375
2242 1 0.53125 0.78125 0.09375
2482 1 0.59375 0.71875 0.09375
2498 1 0.59375 0.78125 0.09375
2738 1 0.65625 0.71875 0.09375
2754 1 0.65625 0.78125 0.09375
2994 1 0.71875 0.71875 0.09375
3010 1 0.71875 0.78125 0.09375
3250 1 0.78125 0.71875 0.09375
3266 1 0.78125 0.78125 0.09375
3506 1 0.84375 0.71875 0.09375
3522 1 0.84375 0.78125 0.09375
3762 1 0.90625 0.71875 0.09375
3778 1 0.90625 0.78125 0.09375
4018 1 0.96875 0.71875 0.09375
4034 1 0.96875 0.78125 0.09375
210 1 0.03125 0.84375 0.09375
466 1 0.09375 0.84375 0.09375
722 1 0.15625 0.84375 0.09375
978 1 0.21875 0.84375 0.09375
1234 1 0.28125 0.84375 0.09375
1490 1 0.34375 0.84375 0.09375
1746 1 0.40625 0.84375 0.09375
2002 1 0.46875 0.84375 0.09375
2258 1 0.53125 0.84375 0.09375
2514 1 0.59375 0.84375 0.09375
2770 1 0.65625 0.84375 0.09375
3026 1 0.71875 0.84375 0.09375
3282 1 0.78125 0.84375 0.09375
3538 1 0.84375 0.84375 0.09375
3794 1 0.90625 0.84375 0.09375
4050 1 0.96875 0.84375 0.09375
226 1 0.03125 0.90625 0.09375
482 1 0.09375 0.90625 0.09375
738 1 0.15625 0.90625 0.09375
994 1 0.21875 0.90625 0.09375
1250 1 0.28125 0.90625 0.09375
1506 1 0.34375 0.90625 0.09375
1762 1 0.40625 0.90625 0.09375
2018 1 0.46875 0.90625 0.09375
2274 1 0.53125 0.90625 0.09375
2530 1 0.59375 0.90625 0.09375
2786 1 0.65625 0.90625 0.09375
3042 1 0.71875 0.90625 0.09375
3298 1 0.78125 0.90625 0.09375
3554 1 0.84375 0.90625 0.09375
3810 1 0.90625 0.90625 0.09375
4066 1 0.96875 0.90625 0.09375
242 1 0.03125 0.96875 0.09375
498 1 0.09375 0.96875 0.09375
754 1 0.15625 0.96875 0.09375
1010 1 0.21875 0.96875 0.09375
1266 1 0.28125 0.96875 0.09375
1522 1 0.34375 0.96875 0.09375
1778 1 0.40625 0.96875 0.09375
2034 1 0.46875 0.96875 0.09375
2290 1 0.53125 0.96875 0.09375
2546 1 0.59375 0.96875 0.09375
2802 1 0.65625 0.96875 0.09375
3058 1 0.71875 0.96875 0.09375
3314 1 0.78125 0.96875 0.09375
3570 1 0.84375 0.96875 0.09375
3826 1 0.90625 0.96875 0.09375
4082 1 0.96875 0.96875 0.09375
3 1 0.03125 0.03125 0.15625
259 1 0.09375 0.03125 0.15625
515 1 0.15625 0.03125 0.15625
771 1 0.21875 0.03125 0.15625
1027 1 0.28125 0.03125 0.15625
1283 1 0.34375 0.03125 0.15625
1539 1 0.40625 0.03125 0.15625
1795 1 0.46875 0.03125 0.15625
2051 1 0.53125 0.03125 0.15625
2307 1 0.59375 0.03125 0.15625
2563 1 0.65625 0.03125 0.15625
2819 1 0.71875 0.03125 0.15625
3075 1 0.78125 0.03125 0.15625
3331 1 0.84375 0.03125 0.15625
3587 1 0.90625 0.03125 0.15625
3843 1 0.96875 0.03125 0.15625
19 1 0.03125 0.09375 0.15625
275 1 0.09375 0.09375 0.15625
531 1 0.15625 0.09375 0.15625
787 1 0.21875 0.09375 0.15625
1043 1 0.28125 0.09375 0.15625
1299 1 0.34375 0.09375 0.15625
1555 1 0.40625 0.09375 0.15625
1811 1 0.46875 0.09375 0.15625
2067 1 0.53125 0.09375 0.15625
2323 1 0.59375 0.09375 0.15625
2579 1 0.65625 0.09375 0.15625
2835 1 0.71875 0.09375 0.15625
3091 1 0.78125 0.09375 0.15625
3347 1 0.84375 0.09375 0.15625
3603 1 0.90625 0.09375 0.15625
3859 1 0.96875 0.09375 0.15625
35 1 0.03125 0.15625 0.15625
291 1 0.09375 0.15625 0.15625
547 1 0.15625 0.15625 0.15625
803 1 0.21875 0.15625 0.15625
1059 1 0.28125 0.15625 0.15625
1315 1 0.34375 0.15625 0.15625
1571 1 0.40625 0.15625 0.15625
1827 1 0.46875 0.15625 0.15625
2083 1 0.53125 0.15625 0.15625
2339 1 0.59375 0.15625 0.15625
2595 1 0.65625 0.15625 0.15625
2851 1 0.71875 0.15625 0.15625
3107 1 0.78125 0.15625 0.15625
3363 1 0.84375 0.15625 0.15625
3619 1 0.90625 0.15625 0.15625
3875 1 0.96875 0.15625 0.15625
51 1 0.03125 0.21875 0.15625
67 1 0.03125 0.28125 0.15625
307 1 0.09375 0.21875 0.15625
323 1 0.09375 0.28125 0.15625
563 1 0.15625 0.21875 0.15625
579 1 0.15625 0.28125 0.15625
819 1 0.21875 0.21875 0.15625
835 1 0.21875 0.28125 0.15625
1075 1 0.28125 0.21875 0.15625
1091 1 0.28125 0.28125 0.15625
1331 1 0.34375 0.21875 0.15625
1347 1 0.34375 0.28125 0.15625
1587 1 0.40625 0.21875 0.15625
1603 1 0.40625 0.28125 0.15625
1843 1 0.46875 0.21875 0.15625
1859 1 0.46875 0.28125 0.15625
2099 1 0.53125 0.21875 0.15625
2115 1 0.53125 0.28125 0.15625
2355 1 0.59375 0.21875 0.15625
2371 1 0.59375 0.28125 0.15625
2611 1 0.65625 0.21875 0.15625
2627 1 0.65625 0.28125 0.15625
2867 1 0.71875 0.21875 0.15625
2883 1 0.71875 0.28125 0.15625
3123 1 0.78125 0.21875 0.15625
3139 1 0.78125 0.28125 0.15625
3379 1 0.84375 0.21875 0.15625
3395 1 0.84375 0.28125 0.15625
3635 1 0.90625 0.21875 0.15625
3651 1 0.90625 0.28125 0.15625
3891 1 0.96875 0.21875 0.15625
3907 1 0.96875 0.28125 0.15625
83 1 0.03125 0.34375 0.15625
339 1 0.09375 0.34375 0.15625
595 1 0.15625 0.34375 0.15625
851 1 0.21875 0.34375 0.15625
1107 1 0.28125 0.34375 0.15625
1363 1 0.34375 0.34375 0.15625
1619 1 0.40625 0.34375 0.15625
1875 1 0.46875 0.34375 0.15625
2131 1 0.53125 0.34375 0.15625
2387 1 0.59375 0.34375 0.15625
2643 1 0.65625 0.34375 0.15625
2899 1 0.71875 0.34375 0.15625
3155 1 0.78125 0.34375 0.15625
3411 1 0.84375 0.34375 0.15625
3667 1 0.90625 0.34375 0.15625
3923 1 0.96875 0.34375 0.15625
99 1 0.03125 0.40625 0.15625
355 1 0.09375 0.40625 0.15625
611 1 0.15625 0.40625 0.15625
867 1 0.21875 0.40625 0.15625
1123 1 0.28125 0.40625 0.15625
1379 1 0.34375 0.40625 0.15625
1635 1 0.40625 0.40625 0.15625
1891 1 0.46875 0.40625 0.15625
2147 1 0.53125 0.40625 0.15625
2403 1 0.59375 0.40625 0.15625
2659 1 0.65625 0.40625 0.15625
2915 1 0.71875 0.40625 0.15625
3171 1 0.78125 0.40625 0.15625
3427 1 0.84375 0.40625 0.15625
3683 1 0.90625 0.40625 0.15625
3939 1 0.96875 0.40625 0.15625
115 1 0.03125 0.46875 0.15625
371 1 0.09375 0.46875 0.15625
627 1 0.15625 0.46875 0.15625
883 1 0.21875 0.46875 0.15625
1139 1 0.28125 0.46875 0.15625
1395 1 0.34375 0.46875 0.15625
1651 1 0.40625 0.46875 0.15625
1907 1 0.46875 0.46875 0.15625
2163 1 0.53125 0.46875 0.15625
2419 1 0.59375 0.46875 0.15625
2675 1 0.65625 0.46875 0.15625
2931 1 0.71875 0.46875 0.15625
3187 1 0.78125 0.46875 0.15625
3443 1 0.84375 0.46875 0.15625
3699 1 0.90625 0.46875 0.15625
3955 1 0.96875 0.46875 0.15625
131 1 0.03125 0.53125 0.15625
387 1 0.09375 0.53125 0.15625
643 1 0.15625 0.53125 0.15625
899 1 0.21875 0.53125 0.15625
1155 1 0.28125 0.53125 0.15625
1411 1 0.34375 0.53125 0.15625
1667 1 0.40625 0.53125 0.15625
1923 1 0.46875 0.53125 0.15625
2179 1 0.53125 0.53125 0.15625
2435 1 0.59375 0.53125 0.15625
2691 1 0.65625 0.53125 0.15625
2947 1 0.71875 0.53125 0.15625
3203 1 0.78125 0.53125 0.15625
3459 1 0.84375 0.53125 0.15625
3715 1 0.90625 0.53125 0.15625
3971 1 0.96875 0.53125 0.15625
147 1 0.03125 0.59375 0.15625
403 1 0.09375 0.59375 0.15625
659 1 0.15625 0.59375 0.15625
915 1 0.21875 0.59375 0.15625
1171 1 0.28125 0.59375 0.15625
1427 1 0.34375 0.59375 0.15625
1683 1 0.40625 0.59375 0.15625
1939 1 0.46875 0.59375 0.15625
2195 1 0.53125 0.59375 0.15625
2451 1 0.59375 0.59375 0.15625
2707 1 0.65625 0.59375 0.15625
2963 1 0.71875 0.59375 0.15625
3219 1 0.78125 0.59375 0.15625
3475 1 0.84375 0.59375 0.15625
3731 1 0.90625 0.59375 0.15625
3987 1 0.96875 0.59375 0.15625
163 1 0.03125 0.65625 0.15625
419 1 0.09375 0.65625 0.15625
675 1 0.15625 0.65625 0.15625
931 1 0.21875 0.65625 0.15625
1187 1 0.28125 0.65625 0.15625
1443 1 0.34375 0.65625 0.15625
1699 1 0.40625 0.65625 0.15625
1955 1 0.46875 0.65625 0.15625
2211 1 0.53125 0.65625 0.15625
2467 1 0.59375 0.65625 0.15625
2723 1 0.65625 0.65625 0.15625
2979 1 0.71875 0.65625 0.15625
3235 1 0.78125 0.65625 0.15625
3491 1 0.84375 0.65625 0.15625
3747 1 0.90625 0.65625 0.15625
4003 1 0.96875 0.65625 0.15625
179 1 0.03125 0.71875 0.15625
195 1 0.03125 0.78125 0.15625
435 1 0.09375 0.71875 0.15625
451 1 0.09375 0.78125 0.15625
691 1 0.15625 0.71875 0.15625
707 1 0.15625 0.78125 0.15625
947 1 0.21875 0.71875 0.15625
963 1 0.21875 0.78125 0.15625
1203 1 0.28125 0.71875 0.15625
1219 1 0.28125 0.78125 0.15625
1459 1 0.34375 0.71875 0.15625
1475 1 0.34375 0.78125 0.15625
1715 1 0.40625 0.71875 0.15625
1731 1 0.40625 0.78125 0.15625
1971 1 0.46875 0.71875 0.15625
1987 1 0.46875 0.78125 0.15625
2227 1 0.53125 0.71875 0.15625
2243 1 0.53125 0.78125 0.15625
2483 1 0.59375 0.71875 0.15625
2499 1 0.59375 0.78125 0.15625
2739 1 0.65625 0.71875 0.15625
2755 1 0.65625 0.78125 0.15625
2995 1 0.71875 0.71875 0.15625
3011 1 0.71875 0.78125 0.15625
3251 1 0.78125 0.71875 0.15625
3267 1 0.78125 0.78125 0.15625
3507 1 0.84375 0.71875 0.15625
3523 1 0.84375 0.78125 0.15625
3763 1 0.90625 0.71875 0.15625
3779 1 0.90625 0.78125 0.15625
4019 1 0.96875 0.71875 0.15625
4035 1 0.96875 0.78125 0.15625
211 1 0.03125 0.84375 0.15625
467 1 0.09375 0.84375 0.15625
723 1 0.15625 0.84375 0.15625
979 1 0.21875 0.84375 0.15625
1235 1 0.28125 0.84375 0.15625
1491 1 0.34375 0.84375 0.15625
1747 1 0.40625 0.84375 0.15625
2003 1 0.46875 0.84375 0.15625
2259 1 0.53125 0.84375 0.15625
2515 1 0.59375 0.84375 0.15625
2771 1 0.65625 0.84375 0.15625
3027 1 0.71875 0.84375 0.15625
3283 1 0.78125 0.84375 0.15625
3539 1 0.84375 0.84375 0.15625
3795 1 0.90625 0.84375 0.15625
4051 1 0.96875 0.84375 0.15625
227 1 0.03125 0.90625 0.15625
483 1 0.09375 0.90625 0.15625
739 1 0.15625 0.90625 0.15625
995 1 0.21875 0.90625 0.15625
1251 1 0.28125 0.90625 0.15625
1507 1 0.34375 0.90625 0.15625
1763 1 0.40625 0.90625 0.15625
2019 1 0.46875 0.90625 0.15625
2275 1 0.53125 0.90625 0.15625
2531 1 0.59375 0.90625 0.15625
2787 1 0.65625 0.90625 0.15625
3043 1 0.71875 0.90625 0.15625
3299 1 0.78125 0.90625 0.15625
3555 1 0.84375 0.90625 0.15625
3811 1 0.90625 0.90625 0.15625
4067 1 0.96875 0.90625 0.15625
243 1 0.03125 0.96875 0.15625
499 1 0.09375 0.96875 0.15625
755 1 0.15625 0.96875 0.15625
1011 1 0.21875 0.96875 0.15625
1267 1 0.28125 0.96875 0.15625
1523 1 0.34375 0.96875 0.15625
1779 1 0.40625 0.96875 0.15625
2035 1 0.46875 0.96875 0.15625
2291 1 0.53125 0.96875 0.15625
2547 1 0.59375 0.96875 0.15625
2803 1 0.65625 0.96875 0.15625
3059 1 0.71875 0.96875 0.15625
3315 1 0.78125 0.96875 0.15625
3571 1 0.84375 0.96875 0.15625
3827 1 0.90625 0.96875 0.15625
4083 1 0.96875 0.96875 0.15625
4 1 0.03125 0.03125 0.21875
5 1 0.03125 0.03125 0.28125
260 1 0.09375 0.03125 0.21875
261 1 0.09375 0.03125 0.28125
516 1 0.15625 0.03125 0.21875
517 1 0.15625 0.03125 0.28125
772 1 0.21875 0.03125 0.21875
773 1 0.21875 0.03125 0.28125
1028 1 0.28125 0.03125 0.21875
1029 1 0.28125 0.03125 0.28125
1284 1 0.34375 0.03125 0.21875
1285 1 0.34375 0.03125 0.28125
1540 1 0.40625 0.03125 0.21875
1541 1 0.40625 0.03125 0.28125
1796 1 0.46875 0.03125 0.21875
1797 1 0.46875 0.03125 0.28125
2052 1 0.53125 0.03125 0.21875
2053 1 0.53125 0.03125 0.28125
2308 1 0.59375 0.03125 0.21875
2309 1 0.59375 0.03125 0.28125
2564 1 0.65625 0.03125 0.21875
2565 1 0.65625 0.03125 0.28125
2820 1 0.71875 0.03125 0.21875
2821 1 0.71875 0.03125 0.28125
3076 1 0.78125 0.03125 0.21875
3077 1 0.78125 0.03125 0.28125
3332 1 0.84375 0.03125 0.21875
3333 1 0.84375 0.03125 0.28125
3588 1 0.90625 0.03125 0.21875
3589 1 0.90625 0.03125 0.28125
3844 1 0.96875 0.03125 0.21875
3845 1 0.96875 0.03125 0.28125
20 1 0.03125 0.09375 0.21875
21 1 0.03125 0.09375 0.28125
276 1 0.09375 0.09375 0.21875
277 1 0.09375 0.09375 0.28125
532 1 0.15625 0.09375 0.21875
533 1 0.15625 0.09375 0.28125
788 1 0.21875 0.09375 0.21875
789 1 0.21875 0.09375 0.28125
1044 1 0.28125 0.09375 0.21875
1045 1 0.28125 0.09375 0.28125
1300 1 0.34375 0.09375 0.21875
1301 1 0.34375 0.09375 0.28125
1556 1 0.40625 0.09375 0.21875
1557 1 0.40625 0.09375 0.28125
1812 1 0.46875 0.09375 0.21875
1813 1 0.46875 0.09375 0.28125
2068 1 0.53125 0.09375 0.21875
2069 1 0.53125 0.09375 0.28125
2324 1 0.59375 0.09375 0.21875
2325 1 0.59375 0.09375 0.28125
2580 1 0.65625 0.09375 0.21875
2581 1 0.65625 0.09375 0.28125
2836 1 0.71875 0.09375 0.21875
2837 1 0.71875 0.09375 0.28125
3092 1 0.78125 0.09375 0.21875
3093 1 0.78125 0.09375 0.28125
3348 1 0.84375 0.09375 0.21875
3349 1 0.84375 0.09375 0.28125
3604 1 0.90625 0.09375 0.21875
3605 1 0.90625 0.09375 0.28125
3860 1 0.96875 0.09375 0.21875
3861 1 0.96875 0.09375 0.28125
36 1 0.03125 0.15625 0.21875
37 1 0.03125 0.15625 0.28125
292 1 0.09375 0.15625 0.21875
293 1 0.09375 0.15625 0.28125
548 1 0.15625 0.15625 0.21875
549 1 0.15625 0.15625 0.28125
804 1 0.21875 0.15625 0.21875
805 1 0.21875 0.15625 0.28125
1060 1 0.28125 0.15625 0.21875
1061 1 0.28125 0.15625 0.28125
1316 1 0.34375 0.15625 0.21875
1317 1 0.34375 0.15625 0.28125
1572 1 0.40625 0.15625 0.21875
1573 1 0.40625 0.15625 0.28125
1828 1 0.46875 0.15625 0.21875
1829 1 0.46875 0.15625 0.28125
2084 1 0.53125 0.15625 0.21875
2085 1 0.53125 0.15625 0.28125
2340 1 0.59375 0.15625 0.21875
2341 1 0.59375 0.15625 0.28125
2596 1 0.65625 0.15625 0.21875
2597 1 0.65625 0.15625 0.28125
2852 1 0.71875 0.15625 0.21875
2853 1 0.71875 0.15625 0.28125
3108 1 0.78125 0.15625 0.21875
3109 1 0.78125 0.15625 0.28125
3364 1 0.84375 0.15625 0.21875
3365 1 0.84375 0.15625 0.28125
3620 1 0.90625 0.15625 0.21875
3621 1 0.90625 0.15625 0.28125
3876 1 0.96875 0.15625 0.21875
3877 1 0.96875 0.15625 0.28125
52 1 0.03125 0.21875 0.21875
53 1 0.03125 0.21875 0.28125
68 1 0.03125 0.28125 0.21875
69 1 0.03125 0.28125 0.28125
308 1 0.09375 0.21875 0.21875
309 1 0.09375 0.21875 0.28125
324 1 0.09375 0.28125 0.21875
325 1 0.09375 0.28125 0.28125
564 1 0.15625 0.21875 0.21875
565 1 0.15625 0.21875 0.28125
580 1 0.15625 0.28125 0.21875
581 1 0.15625 0.28125 0.28125
820 1 0.21875 0.21875 0.21875
821 1 0.21875 0.21875 0.28125
836 1 0.21875 0.28125 0.21875
837 1 0.21875 0.28125 0.28125
1076 1 0.28125 0.21875 0.21875
1077 1 0.28125 0.21875 0.28125
1092 1 0.28125 0.28125 0.21875
1093 1 0.28125 0.28125 0.28125
1332 1 0.34375 0.21875 0.21875
1333 1 0.34375 0.21875 0.28125
1348 1 0.34375 0.28125 0.21875
1349 1 0.34375 0.28125 0.28125
1588 1 0.40625 0.21875 0.21875
1589 1 0.40625 0.21875 0.28125
1604 1 0.40625 0.28125 0.21875
1605 1 0.40625 0.28125 0.28125
1844 1 0.46875 0.21875 0.21875
1845 1 0.46875 0.21875 0.28125
1860 1 0.46875 0.28125 0.21875
1861 1 0.46875 0.28125 0.28125
2100 1 0.53125 0.21875 0.21875
2101 1 0.53125 0.21875 0.28125
2116 1 0.53125 0.28125 0.21875
2117 1 0.53125 0.28125 0.28125
2356 1 0.59375 0.21875 0.21875
2357 1 0.59375 0.21875 0.28125
2372 1 0.59375 0.28125 0.21875
2373 1 0.59375 0.28125 0.28125
2612 1 0.65625 0.21875 0.21875
2613 1 0.65625 0.21875 0.28125
2628 1 0.65625 0.28125 0.21875
2629 1 0.65625 0.28125 0.28125
2868 1 0.71875 0.21875 0.21875
2869 1 0.71875 0.21875 0.28125
2884 1 0.71875 0.28125 0.21875
2885 1 0.71875 0.28125 0.28125
3124 1 0.78125 0.21875 0.21875
3125 1 0.78125 0.21875 0.28125
3140 1 0.78125 0.28125 0.21875
3141 1 0.78125 0.28125 0.28125
3380 1 0.84375 0.21875 0.21875
3381 1 0.84375 0.21875 0.28125
3396 1 0.84375 0.28125 0.21875
3397 1 0.84375 0.28125 0.28125
3636 1 0.90625 0.21875 0.21875
3637 1 0.90625 0.21875 0.28125
3652 1 0.90625 0.28125 0.21875
3653 1 0.90625 0.28125 0.28125
3892 1 0.96875 0.21875 0.21875
3893 1 0.96875 0.21875 0.28125
3908 1 0.96875 0.28125 0.21875
3909 1 0.96875 0.28125 0.28125
84 1 0.03125 0.34375 0.21875
85 1 0.03125 0.34375 0.28125
340 1 0.09375 0.34375 0.21875
341 1 0.09375 0.34375 0.28125
596 1 0.15625 0.34375 0.21875
597 1 0.15625 0.34375 0.28125
852 1 0.21875 0.34375 0.21875
853 1 0.21875 0.34375 0.28125
1108 1 0.28125 0.34375 0.21875
1109 1 0.28125 0.34375 0.28125
1364 1 0.34375 0.34375 0.21875
1365 1 0.34375 0.34375 0.28125
1620 1 0.40625 0.34375 0.21875
1621 1 0.40625 0.34375 0.28125
1876 1 0.46875 0.34375 0.21875
1877 1 0.46875 0.34375 0.28125
2132 1 0.53125 0.34375 0.21875
2133 1 0.53125 0.34375 0.28125
2388 1 0.59375 0.34375 0.21875
2389 1 0.59375 0.34375 0.28125
2644 1 0.65625 0.34375 0.21875
2645 1 0.65625 0.34375 0.28125
2900 1 0.71875 0.34375 0.21875
2901 1 0.71875 0.34375 0.28125
3156 1 0.78125 0.34375 0.21875
3157 1 0.78125 0.34375 0.28125
3412 1 0.84375 0.34375 0.21875
3413 1 0.84375 0.34375 0.28125
3668 1 0.90625 0.34375 0.21875
3669 1 0.90625 0.34375 0.28125
3924 1 0.96875 0.34375 0.21875
3925 1 0.96875 0.34375 0.28125
100 1 0.03125 0.40625 0.21875
101 1 0.03125 0.40625 0.28125
356 1 0.09375 0.40625 0.21875
357 1 0.09375 0.40625 0.28125
612 1 0.15625 0.40625 0.21875
613 1 0.15625 0.40625 0.28125
868 1 0.21875 0.40625 0.21875
869 1 0.21875 0.40625 0.28125
1124 1 0.28125 0.40625 0.21875