ITEM: TIMESTEP
0
ITEM: NUMBER OF ATOMS
512
ITEM: BOX BOUNDS pp pp pp
0.0000000000000000e+00 4.0000000000000000e+01
0.0000000000000000e+00 4.0000000000000000e+01
0.0000000000000000e+00 4.0000000000000000e+01
ITEM: ATOMS id type xs ys zs
468 1 0.0816738 0.00866567 0.0276704
97 1 0.318525 0.0799836 0.0677657
502 1 0.335953 0.00985037 0.0211576
101 1 0.932074 0.0384705 0.0709288
68 1 0.926149 0.0701379 0.0286542
25 1 0.189771 0.13728 0.0656608
449 1 0.397277 0.117062 0.0772525
20 1 0.591539 0.133815 0.0546804
464 1 0.707725 0.16005 0.0602343
312 1 0.0858633 0.210132 0.0555503
367 1 0.620387 0.225038 0.0709348
106 1 0.911851 0.17508 0.017633
370 1 0.895818 0.236443 0.000303034
295 1 0.178635 0.259642 0.0369399
147 1 0.213864 0.277485 0.0780505
165 1 0.821696 0.296332 0.0181248
174 1 0.993645 0.300948 0.0763143
158 1 0.382064 0.394538 0.00949691
192 1 0.806178 0.405108 0.0662743
417 1 0.987035 0.339312 0.0309176
86 1 0.0868538 0.442911 0.0332844
124 1 0.637978 0.440649 0.0556702
196 1 0.709746 0.491431 0.0562619
389 1 0.689379 0.482507 0.0449313
215 1 0.0575624 0.513012 0.055022
313 1 0.237188 0.5387 0.0781908
229 1 0.634102 0.542808 0.0199155
451 1 0.776579 0.519846 0.0213085
259 1 0.0594357 0.647841 0.0530286
96 1 0.012479 0.594374 0.0623732
333 1 0.274164 0.642337 0.00260479
300 1 0.476865 0.590101 0.0398168
262 1 0.837145 0.594193 0.0352258
37 1 0.929721 0.644908 0.0100649
338 1 0.373635 0.697991 0.0588388
179 1 0.475533 0.681522 0.0727801
328 1 0.918417 0.671279 0.0323581
359 1 0.300224 0.791601 0.0068123
159 1 0.670602 0.82474 0.00131927
129 1 0.813046 0.787626 0.0499537
5 1 0.834177 0.785463 0.0355535
219 1 0.0552667 0.881193 0.0205756
74 1 0.0396344 0.857899 0.0454719
60 1 0.213141 0.872916 0.0172988
11 1 0.3225 0.87035 0.0471386
169 1 0.276504 0.86842 0.0236012
306 1 0.70043 0.891149 0.0247147
204 1 0.955089 0.893035 0.0300946
71 1 0.552387 0.962278 0.00155287
220 1 0.635334 0.959613 0.0216389
237 1 0.726788 0.938929 0.0323369
470 1 0.559095 0.0169069 0.0849794
154 1 0.203331 0.137825 0.0858029
246 1 0.297343 0.0994864 0.129337
383 1 0.250248 0.163336 0.0911008
467 1 0.647634 0.0960485 0.105713
445 1 0.894699 0.153923 0.143009
222 1 0.991843 0.123126 0.090414
132 1 0.741772 0.223323 0.110367
77 1 0.63141 0.262083 0.102397
33 1 0.0385419 0.392039 0.153205
329 1 0.0346298 0.396728 0.129044
341 1 0.449884 0.354064 0.134547
76 1 0.622936 0.403899 0.12223
270 1 0.0114318 0.485748 0.124878
88 1 0.0430156 0.444731 0.151507
161 1 0.216069 0.463757 0.128546
273 1 0.271672 0.49255 0.138989
298 1 0.584463 0.469321 0.0940755
444 1 0.987981 0.49587 0.0957249
48 1 0.272387 0.574148 0.120618
340 1 0.456347 0.530983 0.100742
1 1 0.525755 0.502665 0.154815
75 1 0.0199934 0.59561 0.0859767
400 1 0.0456795 0.632838 0.156764
56 1 0.185258 0.604559 0.0943276
51 1 0.358262 0.630979 0.0971419
65 1 0.940385 0.654509 0.163604
117 1 0.750503 0.745031 0.108416
466 1 0.637686 0.822735 0.147488
476 1 0.73582 0.801931 0.14961
83 1 0.0657745 0.914753 0.10573
82 1 0.158445 0.85511 0.0882959
139 1 0.289657 0.850928 0.089554
282 1 0.757224 0.836944 0.103889
19 1 0.775484 0.877718 0.0965905
372 1 0.922368 0.898514 0.164725
409 1 0.989638 0.877659 0.158283
447 1 0.135286 0.968001 0.0988581
189 1 0.0934516 0.926413 0.148586
63 1 0.258065 0.977802 0.142038
133 1 0.679694 0.927253 0.139949
452 1 0.222538 0.0026605 0.238499
448 1 0.350654 0.02354 0.200114
311 1 0.424924 0.0668883 0.212959
430 1 0.544341 0.0297866 0.224951
478 1 0.805374 0.0133531 0.24719
242 1 0.829281 0.0581269 0.197968
268 1 0.0102092 0.121729 0.239957
495 1 0.154472 0.129817 0.173749
457 1 0.289764 0.124982 0.225298
9 1 0.456784 0.134757 0.205151
277 1 0.440093 0.165502 0.191022
358 1 0.637459 0.185725 0.223463
87 1 0.77807 0.207857 0.220898
120 1 0.148638 0.315812 0.194712
245 1 0.394294 0.325225 0.168022
503 1 0.545377 0.284062 0.235149
217 1 0.85242 0.306391 0.244224
27 1 0.860708 0.291082 0.226105
195 1 0.863691 0.268218 0.216599
54 1 0.114514 0.399315 0.236733
256 1 0.507232 0.416515 0.208552
308 1 0.414812 0.419371 0.24396
16 1 0.335425 0.464707 0.189992
182 1 0.556788 0.464612 0.203973
202 1 0.810423 0.472938 0.239443
160 1 0.808346 0.444577 0.241651
368 1 0.999312 0.484286 0.18938
108 1 0.242346 0.527183 0.202277
38 1 0.220846 0.640471 0.244331
419 1 0.378917 0.645483 0.209605
290 1 0.566868 0.637141 0.242118
310 1 0.851746 0.633017 0.225141
437 1 0.941212 0.615772 0.242164
130 1 0.0861322 0.696629 0.243616
424 1 0.446754 0.697483 0.181543
142 1 0.635775 0.779985 0.196326
327 1 0.889042 0.761626 0.17641
210 1 0.697757 0.841609 0.221655
61 1 0.792513 0.873541 0.168015
207 1 0.769021 0.872955 0.171843
40 1 0.0647897 0.02555 0.267516
137 1 0.0872398 0.0283991 0.276
69 1 0.843551 0.153518 0.25827
360 1 0.288022 0.212295 0.258247
392 1 0.398134 0.199542 0.261681
94 1 0.56532 0.202554 0.323329
490 1 0.707362 0.244312 0.322472
35 1 0.88604 0.202598 0.291379
471 1 0.896531 0.245109 0.254558
325 1 0.99398 0.223404 0.253288
257 1 0.758072 0.250514 0.315179
80 1 0.839167 0.258235 0.326589
143 1 0.0870324 0.369173 0.330507
28 1 0.291177 0.335396 0.299239
107 1 0.277372 0.354269 0.305188
339 1 0.411731 0.345488 0.304539
422 1 0.529839 0.337641 0.258397
53 1 0.871271 0.337717 0.282131
302 1 0.868513 0.366734 0.280994
334 1 0.8834 0.37514 0.29932
373 1 0.224474 0.49974 0.261225
119 1 0.529644 0.427071 0.257963
446 1 0.670427 0.448497 0.288024
356 1 0.821925 0.487869 0.317184
285 1 0.149092 0.542749 0.266897
47 1 0.708333 0.582206 0.285223
113 1 0.0962457 0.60842 0.25642
274 1 0.700396 0.642475 0.306377
496 1 0.915639 0.61362 0.320928
475 1 0.567704 0.734446 0.312003
391 1 0.021911 0.799746 0.256983
395 1 0.29632 0.754537 0.305998
305 1 0.654732 0.784211 0.299704
346 1 0.684592 0.815934 0.281341
276 1 0.481722 0.888975 0.289758
438 1 0.146372 0.950186 0.308558
228 1 0.18407 0.976693 0.279066
233 1 0.41111 0.957613 0.265147
102 1 0.690027 0.981058 0.264007
230 1 0.352049 0.0368275 0.375888
407 1 0.538441 0.0351207 0.380824
365 1 0.958921 0.0198612 0.409568
435 1 0.228564 0.121666 0.368359
218 1 0.707057 0.137041 0.402772
123 1 0.980296 0.147247 0.407564
115 1 0.052653 0.244129 0.347061
507 1 0.102314 0.247815 0.357492
482 1 0.549081 0.200246 0.341832
319 1 0.60803 0.243357 0.388549
307 1 0.059381 0.279759 0.337843
321 1 0.379891 0.2521 0.413583
294 1 0.482309 0.331034 0.349517
12 1 0.526472 0.288397 0.414804
121 1 0.669277 0.257045 0.373418
89 1 0.732536 0.305658 0.376363
462 1 0.37898 0.457079 0.355717
188 1 0.489959 0.418748 0.358688
34 1 0.518554 0.497256 0.379798
15 1 0.519257 0.578827 0.352187
387 1 0.697369 0.552152 0.350737
241 1 0.696943 0.534062 0.367894
408 1 0.762207 0.560434 0.356993
382 1 0.836361 0.524617 0.409524
350 1 0.211318 0.638485 0.409432
62 1 0.278543 0.612557 0.383475
6 1 0.274517 0.685719 0.404831
499 1 0.323201 0.726778 0.380996
361 1 0.965283 0.733045 0.370719
410 1 0.0877424 0.797228 0.374696
206 1 0.264652 0.801876 0.377908
354 1 0.403119 0.830533 0.386046
272 1 0.611144 0.784533 0.397011
443 1 0.833456 0.761695 0.385455
98 1 0.235342 0.898489 0.365646
393 1 0.176642 0.847739 0.395551
14 1 0.399964 0.883999 0.415214
318 1 0.564842 0.909191 0.37498
347 1 0.816612 0.855738 0.338565
260 1 0.862778 0.891184 0.373329
167 1 0.224825 0.918878 0.396541
508 1 0.275252 0.998592 0.366432
366 1 0.754592 0.943985 0.385618
244 1 0.955182 0.942702 0.363418
440 1 0.133716 0.0670178 0.483016
420 1 0.480578 0.0102457 0.465735
480 1 0.705792 0.0747069 0.42037
332 1 0.640751 0.152482 0.499746
384 1 0.668296 0.0916402 0.456553
279 1 0.369404 0.186174 0.42261
412 1 0.954306 0.187906 0.470878
251 1 0.945839 0.22811 0.45364
454 1 0.207567 0.303669 0.478184
348 1 0.334631 0.29728 0.435767
79 1 0.579558 0.302678 0.463219
322 1 0.526132 0.304025 0.434165
44 1 0.727703 0.300255 0.47158
8 1 0.784744 0.319864 0.49491
264 1 0.109306 0.374646 0.470213
483 1 0.530078 0.366724 0.43891
190 1 0.897056 0.35419 0.457251
374 1 0.106882 0.437342 0.444478
385 1 0.655224 0.470499 0.495922
263 1 0.775457 0.485903 0.49824
433 1 0.946705 0.453323 0.447908
140 1 0.323784 0.532533 0.49072
205 1 0.346566 0.539512 0.483347
278 1 0.0947608 0.649407 0.498268
73 1 0.206952 0.599705 0.487529
342 1 0.69084 0.636097 0.485642
78 1 0.717269 0.593505 0.484113
261 1 0.858735 0.619734 0.465203
414 1 0.937418 0.604438 0.49093
173 1 0.488389 0.737598 0.48362
353 1 0.635483 0.681871 0.458227
337 1 0.988467 0.742317 0.44886
281 1 0.0228933 0.812003 0.495557
505 1 0.378935 0.762172 0.459629
13 1 0.594899 0.814476 0.438717
24 1 0.194857 0.902819 0.479322
284 1 0.306781 0.833475 0.44469
376 1 0.351645 0.84113 0.459514
330 1 0.657005 0.88384 0.485973
21 1 0.817993 0.898832 0.4858
85 1 0.0498465 0.972254 0.445384
90 1 0.366993 0.999629 0.488217
162 1 0.561895 0.963388 0.431572
472 1 0.800411 0.993368 0.451626
500 1 0.147306 0.0335083 0.531201
477 1 0.165767 0.0251165 0.517178
427 1 0.231937 0.0292891 0.536418
481 1 0.724939 5.8968e-06 0.54723
357 1 0.139598 0.0864835 0.571069
55 1 0.498664 0.147606 0.579132
265 1 0.636008 0.139577 0.520569
431 1 0.714395 0.129016 0.555285
379 1 0.744799 0.116523 0.514689
31 1 0.821486 0.157606 0.553105
52 1 0.988949 0.0945994 0.529227
187 1 0.95411 0.147347 0.504941
152 1 0.00493407 0.209913 0.563559
315 1 0.212854 0.245527 0.562082
146 1 0.737569 0.205688 0.574876
64 1 0.0503353 0.280519 0.560004
144 1 0.0815851 0.312307 0.510597
460 1 0.0902929 0.304471 0.582343
191 1 0.595196 0.278472 0.505238
235 1 0.780688 0.333245 0.565991
258 1 0.484797 0.364712 0.575015
203 1 0.604947 0.342754 0.57323
465 1 0.598934 0.397085 0.531269
93 1 0.919005 0.393993 0.541557
175 1 0.0326782 0.451809 0.580843
164 1 0.10849 0.488444 0.572608
324 1 0.407258 0.445589 0.565561
441 1 0.76453 0.484805 0.546198
227 1 0.779279 0.475918 0.528306
236 1 0.3753 0.519201 0.519081
345 1 0.425453 0.560221 0.503607
32 1 0.640497 0.573627 0.54751
46 1 0.706683 0.561616 0.56687
58 1 0.819205 0.558972 0.505886
50 1 0.850927 0.550753 0.550468
136 1 0.83931 0.535212 0.567952
363 1 0.387072 0.620778 0.520042
30 1 0.534669 0.624382 0.558658
352 1 0.987181 0.612763 0.570295
428 1 0.039157 0.731844 0.500257
453 1 0.242427 0.712854 0.521478
2 1 0.280896 0.705224 0.581691
442 1 0.60168 0.746595 0.507644
209 1 0.633915 0.674244 0.578524
39 1 0.0571099 0.79525 0.548208
458 1 0.499876 0.818317 0.541561
92 1 0.437113 0.825242 0.545788
292 1 0.00457513 0.862001 0.521299
301 1 0.337667 0.911522 0.549764
293 1 0.00230613 0.999279 0.538441
267 1 0.214683 0.922015 0.525202
200 1 0.280303 0.955311 0.523895
461 1 0.329716 0.987478 0.564687
388 1 0.619908 0.942692 0.532053
289 1 0.73327 0.944404 0.554835
239 1 0.142267 0.0423406 0.638054
122 1 0.599058 0.116298 0.619137
380 1 0.599468 0.177944 0.626575
238 1 0.833478 0.190961 0.61191
166 1 0.54594 0.277172 0.663045
331 1 0.615403 0.327651 0.591292
3 1 0.641268 0.297827 0.591427
23 1 0.147029 0.35503 0.627973
456 1 0.18513 0.39686 0.659661
426 1 0.605925 0.403985 0.592613
168 1 0.908011 0.367167 0.594053
439 1 0.911814 0.342811 0.625023
91 1 0.449803 0.489315 0.585529
221 1 0.4702 0.42556 0.630468
240 1 0.593924 0.466678 0.642052
287 1 0.0283119 0.547921 0.600921
145 1 0.0240657 0.556048 0.653491
488 1 0.316782 0.575261 0.635546
421 1 0.320647 0.581834 0.611723
271 1 0.559981 0.561247 0.662048
512 1 0.321317 0.598978 0.628793
386 1 0.980983 0.619621 0.661973
184 1 0.993841 0.600113 0.590717
415 1 0.651906 0.678862 0.642423
402 1 0.684911 0.693617 0.611379
266 1 0.827176 0.68457 0.64308
95 1 0.492521 0.807155 0.638039
185 1 0.547407 0.798623 0.586521
156 1 0.525463 0.807677 0.59146
211 1 0.593526 0.76714 0.644423
429 1 0.0580087 0.909746 0.594407
405 1 0.0575089 0.89499 0.614442
134 1 0.0254902 0.875737 0.647419
487 1 0.26582 0.870058 0.66403
416 1 0.412508 0.839993 0.590586
336 1 0.609248 0.95565 0.635229
316 1 0.720123 0.967213 0.632239
42 1 0.261712 0.0337354 0.738498
57 1 0.428236 0.0693642 0.694303
198 1 0.629478 0.00268273 0.710392
141 1 0.585347 0.00318102 0.701819
247 1 0.845425 0.0526099 0.735132
297 1 0.876047 0.0822446 0.688654
49 1 0.00724949 0.10706 0.690114
253 1 0.271469 0.13468 0.670225
413 1 0.96798 0.114963 0.70479
498 1 0.015805 0.223721 0.671342
138 1 0.117672 0.181428 0.72347
474 1 0.219617 0.210593 0.667594
67 1 0.42786 0.186079 0.740364
252 1 0.510343 0.229636 0.668378
390 1 0.629888 0.189976 0.727442
103 1 0.98009 0.32342 0.721369
377 1 0.236703 0.357329 0.744524
232 1 0.21697 0.40342 0.718645
296 1 0.440617 0.360842 0.690899
375 1 0.134772 0.424077 0.713446
181 1 0.420982 0.425627 0.709573
208 1 0.719516 0.5345 0.722261
250 1 0.670541 0.584175 0.690324
326 1 0.669533 0.624031 0.702155
151 1 0.891099 0.650382 0.701761
291 1 0.895522 0.649456 0.676989
125 1 0.889043 0.671106 0.687751
70 1 0.948696 0.684492 0.748942
381 1 0.15694 0.785321 0.674448
399 1 0.680027 0.820494 0.72042
43 1 0.046297 0.908788 0.697607
201 1 0.00980998 0.913702 0.729066
127 1 0.0251351 0.906673 0.710024
509 1 0.955051 0.891978 0.709648
17 1 0.230335 0.944664 0.694143
197 1 0.279866 0.960921 0.715733
109 1 0.868726 0.974494 0.707137
249 1 0.0625425 0.104073 0.777986
45 1 0.35308 0.158896 0.812946
255 1 0.344897 0.0927564 0.804449
404 1 0.475244 0.132715 0.77478
323 1 0.662983 0.164247 0.821331
418 1 0.640424 0.133495 0.779018
497 1 0.0200049 0.200143 0.781534
172 1 0.23793 0.246036 0.825046
394 1 0.527971 0.204057 0.751356
213 1 0.712583 0.169169 0.818944
112 1 0.166549 0.253446 0.829167
18 1 0.291347 0.279893 0.784285
349 1 0.580981 0.284789 0.795277
355 1 0.586041 0.251876 0.752387
491 1 0.961902 0.304473 0.759137
396 1 0.222184 0.342854 0.797135
104 1 0.257961 0.496337 0.816633
459 1 0.35562 0.445164 0.787133
269 1 0.749146 0.489657 0.773568
378 1 0.678184 0.487384 0.812953
22 1 0.871614 0.46985 0.776084
199 1 0.478799 0.512598 0.828957
501 1 0.644861 0.566908 0.821449
183 1 0.837156 0.535543 0.794122
479 1 0.649467 0.614313 0.799827
335 1 0.0893013 0.723089 0.763785
275 1 0.11907 0.728192 0.809511
231 1 0.213963 0.701711 0.801763
126 1 0.273596 0.682849 0.7737
473 1 0.474038 0.682547 0.764129
309 1 0.666374 0.703915 0.816306
411 1 0.766029 0.733228 0.83232
299 1 0.87655 0.740779 0.780527
148 1 0.945356 0.711572 0.797787
317 1 0.401845 0.78772 0.812396
511 1 0.889308 0.762813 0.757984
234 1 0.989241 0.754965 0.81069
176 1 0.309758 0.904006 0.815141
116 1 0.592557 0.919501 0.812567
320 1 0.678855 0.931554 0.8243
225 1 0.994428 0.990259 0.785385
397 1 0.945926 0.938851 0.771918
493 1 0.188071 0.0387133 0.876974
224 1 0.442753 0.00247117 0.835952
494 1 0.539547 0.0726753 0.889834
280 1 0.548514 0.024334 0.905877
506 1 0.542564 0.0128844 0.834701
153 1 0.823139 0.0200332 0.868005
344 1 0.935155 0.162349 0.876386
194 1 0.00273155 0.201607 0.894172
66 1 0.16301 0.219291 0.857126
41 1 0.153656 0.233606 0.839518
432 1 0.0951654 0.176275 0.909722
486 1 0.480858 0.232821 0.84882
29 1 0.982229 0.195185 0.881428
369 1 0.423828 0.322592 0.863501
212 1 0.829915 0.318283 0.868144
226 1 0.845694 0.305056 0.852995
406 1 0.388173 0.376979 0.884748
180 1 0.336976 0.45162 0.91146
72 1 0.493727 0.481485 0.84614
362 1 0.770567 0.467085 0.871993
469 1 0.104893 0.545902 0.84702
81 1 0.178363 0.561261 0.886241
223 1 0.255444 0.543683 0.84422
484 1 0.349692 0.580832 0.83637
304 1 0.108825 0.609447 0.889415
10 1 0.0910293 0.624613 0.896813
485 1 0.413586 0.637315 0.908944
4 1 0.633749 0.601601 0.867574
214 1 0.195107 0.68969 0.872722
114 1 0.446761 0.731114 0.837979
178 1 0.891798 0.720258 0.849062
286 1 0.947744 0.680962 0.897728
135 1 0.239753 0.765577 0.879114
492 1 0.689665 0.815669 0.903178
504 1 0.932945 0.752261 0.886869
105 1 0.000303368 0.902112 0.886533
463 1 0.267301 0.910924 0.872252
171 1 0.711358 0.893863 0.863459
170 1 0.751661 0.851333 0.860041
248 1 0.189385 0.933131 0.853724
314 1 0.388911 0.967522 0.875206
371 1 0.490524 0.964663 0.915213
423 1 0.600811 0.984458 0.849822
155 1 0.713455 0.954945 0.893941
425 1 0.767942 0.957319 0.870603
434 1 0.915001 0.941558 0.873513
216 1 0.393925 0.0681052 0.925181
111 1 0.548664 0.0197336 0.959271
149 1 0.66582 0.0412639 0.970738
364 1 0.900714 0.0350276 0.932794
150 1 0.0766772 0.104102 0.965898
303 1 0.136346 0.151759 0.970141
118 1 0.0865071 0.124104 0.976469
186 1 0.379151 0.125636 0.967084
7 1 0.393596 0.11353 0.983414
131 1 0.675976 0.104486 0.962716
489 1 0.873764 0.147715 0.953385
283 1 0.351729 0.168204 0.950103
343 1 0.926461 0.166889 0.957838
59 1 0.614724 0.341953 0.994751
288 1 0.62161 0.359557 0.978633
398 1 0.0150827 0.483503 0.938203
99 1 0.0482702 0.479549 0.963221
436 1 0.524613 0.435173 0.956065
450 1 0.720947 0.435964 0.924019
100 1 0.696547 0.437633 0.981222
401 1 0.703271 0.418672 0.920824
177 1 0.962447 0.498089 0.974418
193 1 0.047369 0.517538 0.975434
36 1 0.383939 0.610352 0.933446
157 1 0.452777 0.730242 0.983178
26 1 0.471031 0.684544 0.946074
243 1 0.730151 0.742914 0.970316
351 1 0.401733 0.815141 0.922077
510 1 0.781615 0.771857 0.929705
254 1 0.480134 0.90138 0.953877
110 1 0.471606 0.846214 0.92667
403 1 0.550866 0.900017 0.957848
163 1 0.619538 0.841813 0.948824
455 1 0.955407 0.895847 0.94672
128 1 0.933059 0.904003 0.939763
84 1 0.0297016 0.93325 0.993691
ITEM: TIMESTEP
10000
ITEM: NUMBER OF ATOMS
512
ITEM: BOX BOUNDS pp pp pp
0.0000000000000000e+00 4.0000000000000000e+01
0.0000000000000000e+00 4.0000000000000000e+01
0.0000000000000000e+00 4.0000000000000000e+01
ITEM: ATOMS id type xs ys zs
284 1 0.152213 0.0174919 0.0794698
462 1 0.167993 0.0463349 0.0795521
42 1 0.579544 0.0820768 0.0316538
6 1 0.0955074 0.142101 0.0664333
168 1 0.194595 0.104456 0.0832773
128 1 0.340386 0.153778 0.0209851
302 1 0.716779 0.133747 0.0104221
250 1 0.820574 0.121863 0.0108089
299 1 0.299265 0.220754 0.0500176
235 1 0.55904 0.221482 0.02062
358 1 0.796482 0.247687 0.0255353
109 1 0.200728 0.282276 0.0652604
400 1 0.396603 0.326725 0.0424627
133 1 0.579499 0.29206 0.00232133
149 1 0.612965 0.27353 0.0204834
112 1 0.710189 0.322033 0.0731005
444 1 0.0621765 0.392382 0.0693782
326 1 0.273391 0.351803 0.00241724
239 1 0.258716 0.391653 0.0538652
34 1 0.459792 0.389954 0.0108423
52 1 0.477382 0.341811 0.0130826
422 1 0.65221 0.414874 0.0431787
228 1 0.621878 0.428666 0.0610092
28 1 0.635654 0.437179 0.0416283
204 1 0.761165 0.46156 0.00141665
458 1 0.00770051 0.538266 0.0456888
33 1 0.151023 0.534138 0.0350354
230 1 0.206448 0.556829 0.0082835
209 1 0.225393 0.526597 0.0678473
32 1 0.252333 0.505925 0.0481423
482 1 0.743687 0.531443 0.00528102
267 1 0.796265 0.625355 0.0360513
405 1 0.882014 0.642891 0.0338773
63 1 0.0661011 0.745718 0.0327588
183 1 0.135069 0.708778 0.0467085
158 1 0.882339 0.740931 0.0670449
80 1 0.99789 0.680681 0.0366467
463 1 0.122192 0.763759 0.0808008
192 1 0.570986 0.759981 0.0284317
7 1 0.948223 0.790111 0.0437633
66 1 0.0157039 0.870872 0.0119271
346 1 0.250429 0.834242 0.077157
96 1 0.207979 0.918875 0.0544713
329 1 0.540039 0.973958 0.0571425
396 1 0.503403 0.973934 0.0810007
71 1 0.738446 0.956144 0.0393967
279 1 0.719293 0.967555 0.0772051
459 1 0.145334 0.0323305 0.0999535
175 1 0.520018 0.055256 0.145022
509 1 0.630085 0.0824013 0.136393
38 1 0.681862 0.0524353 0.124642
76 1 0.111307 0.0935529 0.150542
74 1 0.101634 0.144388 0.108402
184 1 0.389395 0.112835 0.113796
46 1 0.486309 0.13789 0.100004
188 1 0.0171376 0.207927 0.148576
102 1 0.397266 0.288018 0.158867
371 1 0.604491 0.291734 0.118364
269 1 0.109693 0.373131 0.1098
375 1 0.603486 0.334185 0.154998
152 1 0.876283 0.413826 0.133824
442 1 0.918107 0.373802 0.0877058
357 1 0.129904 0.466541 0.108247
428 1 0.22146 0.45987 0.154051
491 1 0.45645 0.437926 0.142626
162 1 0.634647 0.487424 0.0986453
268 1 0.835205 0.494224 0.123224
338 1 0.0631618 0.547228 0.112953
406 1 0.0417942 0.554664 0.158961
337 1 0.103117 0.510609 0.153802
238 1 0.328731 0.54072 0.108661
171 1 0.294418 0.560286 0.13821
416 1 0.716605 0.573476 0.109827
382 1 0.682103 0.513086 0.106424
488 1 0.0491311 0.59406 0.130636
60 1 0.6614 0.606902 0.120882
367 1 0.720611 0.594086 0.0990139
259 1 0.990492 0.59565 0.0932569
283 1 0.527718 0.725095 0.119999
62 1 0.737159 0.722886 0.13968
470 1 0.802906 0.679039 0.0970897
265 1 0.0669525 0.769997 0.14943
298 1 0.279623 0.776363 0.137803
369 1 0.736759 0.832515 0.148694
69 1 0.734359 0.858818 0.113863
266 1 0.230784 0.936925 0.128744
123 1 0.24506 0.985987 0.13908
261 1 0.323515 0.990805 0.157151
231 1 0.252648 0.991018 0.164482
144 1 0.273025 0.977511 0.16051
166 1 0.308676 0.923484 0.130645
23 1 0.390436 0.956774 0.130208
423 1 0.382388 0.973863 0.0923865
179 1 0.481977 0.977799 0.158758
88 1 0.0613746 0.0558627 0.16925
262 1 0.218003 0.0466893 0.212116
247 1 0.193012 0.0139816 0.188305
424 1 0.19757 0.00528727 0.24806
436 1 0.6051 0.0555225 0.242018
479 1 0.638427 0.0678536 0.180258
224 1 0.84797 0.0594923 0.181236
122 1 0.083535 0.144959 0.212757
391 1 0.225258 0.143382 0.167829
111 1 0.345618 0.0917147 0.20324
24 1 0.582074 0.162212 0.249831
140 1 0.725949 0.131552 0.242368
343 1 0.0456886 0.236293 0.2286
172 1 0.907059 0.171237 0.200898
493 1 0.906319 0.239308 0.227802
498 1 0.379331 0.328883 0.215855
409 1 0.364538 0.316188 0.244711
292 1 0.389591 0.32191 0.238989
240 1 0.860925 0.276673 0.18021
101 1 0.487505 0.362277 0.212745
378 1 0.64992 0.351311 0.212151
11 1 0.172618 0.434919 0.173747
434 1 0.20441 0.430162 0.215927
85 1 0.629488 0.43748 0.203428
274 1 0.667049 0.472154 0.24605
134 1 0.83539 0.442007 0.202881
341 1 0.0911605 0.543162 0.197245
372 1 0.420174 0.559864 0.224278
364 1 0.694486 0.606442 0.210437
36 1 0.00929361 0.700158 0.167733
58 1 0.143172 0.727431 0.230838
286 1 0.0708107 0.788866 0.167384
309 1 0.34279 0.795698 0.226941
100 1 0.517552 0.78757 0.214482
150 1 0.533719 0.770525 0.176173
316 1 0.586807 0.759234 0.17652
384 1 0.0715384 0.884714 0.243681
361 1 0.926907 0.865951 0.240038
501 1 0.146236 0.954507 0.188418
186 1 0.192722 0.918657 0.187694
304 1 0.472029 0.946866 0.226482
359 1 0.28185 0.00727854 0.283435
503 1 0.51645 0.0706921 0.264721
91 1 0.623117 0.0500918 0.255843
374 1 0.725446 0.0377147 0.289967
285 1 0.0731087 0.10194 0.287878
486 1 0.0682718 0.132609 0.273629
276 1 0.0905833 0.0883065 0.255214
12 1 0.0870381 0.124387 0.253728
206 1 0.235479 0.152594 0.307067
170 1 0.0276162 0.184863 0.253364
169 1 0.0248363 0.196212 0.283771
280 1 0.218138 0.208021 0.308411
106 1 0.361972 0.21972 0.252474
110 1 0.831357 0.215219 0.333023
411 1 0.116724 0.270369 0.330871
356 1 0.408729 0.312889 0.253133
5 1 0.0757151 0.353132 0.254664
437 1 0.410212 0.33633 0.255052
54 1 0.65887 0.38552 0.316089
456 1 0.615297 0.373579 0.311911
115 1 0.644484 0.415224 0.272217
429 1 0.80233 0.380038 0.29532
342 1 0.0340955 0.450082 0.285582
355 1 0.733793 0.471524 0.262678
352 1 0.779553 0.587578 0.2695
281 1 0.833888 0.677596 0.287265
318 1 0.100069 0.903105 0.30711
376 1 0.123408 0.835254 0.264559
447 1 0.441705 0.905902 0.316265
273 1 0.510313 0.866732 0.276883
1 1 0.635661 0.904991 0.29812
460 1 0.700649 0.874174 0.319139
138 1 0.337626 0.976565 0.326996
287 1 0.420293 0.927488 0.313378
254 1 0.511852 0.918883 0.286125
489 1 0.786166 0.93503 0.328539
257 1 0.663529 0.0398763 0.337427
16 1 0.671811 0.018989 0.371221
185 1 0.6392 0.0947548 0.388785
350 1 0.812447 0.119501 0.352598
381 1 0.858574 0.135758 0.343682
232 1 0.0354782 0.212189 0.373646
92 1 0.11551 0.175844 0.411288
212 1 0.891039 0.207276 0.37649
178 1 0.862477 0.225458 0.38563
301 1 0.361657 0.322196 0.386194
334 1 0.489643 0.300908 0.378981
494 1 0.697399 0.269011 0.338915
476 1 0.735708 0.25987 0.356092
48 1 0.709141 0.256799 0.396409
214 1 0.733764 0.319398 0.366478
313 1 0.766455 0.256168 0.355937
392 1 0.254326 0.413581 0.359713
117 1 0.323603 0.405007 0.382198
161 1 0.526895 0.402786 0.358279
439 1 0.715623 0.376013 0.369962
95 1 0.112786 0.48975 0.373254
333 1 0.468174 0.559412 0.402449
390 1 0.909489 0.569935 0.362632
480 1 0.884623 0.527014 0.412776
29 1 0.0358904 0.584002 0.410733
251 1 0.392564 0.646147 0.386424
139 1 0.893813 0.664834 0.34863
126 1 0.00662557 0.724051 0.355574
118 1 0.0326065 0.725983 0.358272
17 1 0.0233732 0.749998 0.353014
307 1 0.446242 0.683509 0.347171
380 1 0.57913 0.737547 0.396022
475 1 0.0497506 0.777343 0.39848
41 1 0.295181 0.774085 0.40885
13 1 0.503283 0.755753 0.391967
431 1 0.65866 0.807132 0.337031
457 1 0.555817 0.880803 0.366623
388 1 0.758399 0.91527 0.367483
505 1 0.845829 0.867817 0.368837
43 1 0.0614775 0.919843 0.396897
308 1 0.174727 0.94485 0.353187
461 1 0.187458 0.922934 0.345547
401 1 0.596338 0.925611 0.354408
351 1 0.702816 0.953504 0.380781
484 1 0.0598976 0.0287571 0.483142
53 1 0.114754 0.0553234 0.450599
295 1 0.525597 0.0557902 0.419741
67 1 0.592566 0.0571382 0.427054
195 1 0.70363 0.0808833 0.477369
349 1 0.0958028 0.132348 0.498077
441 1 0.210807 0.122475 0.446951
25 1 0.63409 0.0988842 0.474726
222 1 0.736885 0.132146 0.47711
146 1 0.87763 0.0951746 0.48059
113 1 0.164542 0.197804 0.420902
407 1 0.119161 0.211497 0.455347
412 1 0.0999844 0.236972 0.470196
362 1 0.928518 0.247447 0.428804
483 1 0.0911806 0.333375 0.47148
127 1 0.212603 0.359476 0.466216
236 1 0.464251 0.351308 0.453879
223 1 0.513392 0.384905 0.423742
377 1 0.269743 0.435971 0.435618
246 1 0.395175 0.43665 0.439436
415 1 0.373488 0.435521 0.472853
427 1 0.408467 0.492851 0.439313
47 1 0.95847 0.491224 0.468051
312 1 0.986171 0.491505 0.461735
323 1 0.0450308 0.505904 0.493854
291 1 0.100833 0.568612 0.489383
278 1 0.398379 0.561118 0.475004
248 1 0.542273 0.535482 0.45376
215 1 0.84054 0.556277 0.453716
205 1 0.720152 0.630496 0.497275
271 1 0.0969779 0.684903 0.477262
389 1 0.26422 0.694268 0.437239
317 1 0.556079 0.700904 0.492358
270 1 0.218576 0.866906 0.433011
176 1 0.22843 0.975729 0.493355
202 1 0.104984 0.056238 0.577656
300 1 0.347742 0.116029 0.575199
324 1 0.473 0.0889829 0.575527
97 1 0.570636 0.126181 0.529797
216 1 0.93229 0.248322 0.514196
328 1 0.259655 0.279444 0.574495
197 1 0.624963 0.331283 0.54065
373 1 0.785968 0.290574 0.560724
296 1 0.990689 0.2736 0.530756
79 1 0.184416 0.403365 0.517022
319 1 0.802595 0.392534 0.545495
414 1 0.759816 0.378337 0.551198
303 1 0.0187125 0.492169 0.573379
84 1 0.0225938 0.472458 0.559495
256 1 0.536534 0.48237 0.54679
90 1 0.570918 0.492123 0.537768
310 1 0.560864 0.462294 0.530398
31 1 0.867453 0.495817 0.558183
468 1 0.906993 0.438144 0.538637
143 1 0.066693 0.514141 0.541729
125 1 0.0932051 0.565599 0.5141
497 1 0.154913 0.654989 0.511762
105 1 0.239181 0.63349 0.508517
438 1 0.279058 0.651115 0.52609
249 1 0.263717 0.72061 0.538668
465 1 0.844651 0.711841 0.545058
420 1 0.852457 0.70715 0.505386
507 1 0.998285 0.742416 0.561397
187 1 0.97424 0.714935 0.581803
233 1 0.960467 0.735931 0.553452
221 1 0.0675134 0.763756 0.540563
421 1 0.740501 0.79338 0.539241
452 1 0.679405 0.82373 0.506667
30 1 0.154229 0.909306 0.547242
99 1 0.383779 0.884383 0.537344
153 1 0.552553 0.857506 0.517287
492 1 0.765144 0.841495 0.537239
344 1 0.337365 0.926077 0.552091
398 1 0.590242 0.96732 0.53476
55 1 0.920281 0.966159 0.527704
311 1 0.439779 0.060303 0.665428
260 1 0.523061 0.0569584 0.619795
190 1 0.529505 0.0607752 0.593875
289 1 0.841633 0.0331662 0.645968
293 1 0.140529 0.135861 0.58542
217 1 0.187821 0.140674 0.60156
502 1 0.248821 0.118315 0.63499
306 1 0.570619 0.133734 0.632287
446 1 0.744871 0.115206 0.627224
57 1 0.797956 0.091746 0.602448
39 1 0.00533284 0.192915 0.652142
87 1 0.26127 0.20758 0.629383
129 1 0.433245 0.182152 0.587329
213 1 0.514978 0.16914 0.661487
78 1 0.616226 0.240345 0.651366
191 1 0.919989 0.266316 0.628445
180 1 0.959398 0.293646 0.639209
477 1 0.324532 0.409813 0.585057
263 1 0.551846 0.445388 0.624645
314 1 0.690616 0.497718 0.631337
445 1 0.144134 0.530356 0.642892
15 1 0.328409 0.562441 0.601472
159 1 0.331564 0.501629 0.633308
18 1 0.338536 0.547597 0.631998
471 1 0.386245 0.546251 0.583412
237 1 0.414941 0.553927 0.660438
98 1 0.0896726 0.646707 0.656839
252 1 0.263139 0.626771 0.648466
490 1 0.581118 0.649485 0.66141
119 1 0.70539 0.601565 0.652281
135 1 0.636173 0.677218 0.636559
234 1 0.590466 0.68457 0.623611
408 1 0.793122 0.71528 0.646339
383 1 0.776179 0.693415 0.62367
467 1 0.209886 0.761938 0.597776
370 1 0.0754069 0.885579 0.623039
315 1 0.0291911 0.905518 0.592793
481 1 0.070556 0.91661 0.59845
114 1 0.144451 0.848172 0.644678
229 1 0.853698 0.851421 0.625758
413 1 0.969266 0.871019 0.650238
45 1 0.1446 0.018978 0.679591
345 1 0.104878 0.0579668 0.727029
49 1 0.257235 0.0407093 0.707782
9 1 0.476297 0.00907753 0.690713
201 1 0.91781 0.00437654 0.712003
425 1 0.984517 0.0439982 0.705633
142 1 0.0260194 0.144222 0.737538
244 1 0.230512 0.103438 0.729823
163 1 0.327591 0.124525 0.733528
253 1 0.323728 0.147327 0.741857
327 1 0.342657 0.107933 0.713587
211 1 0.382656 0.0886228 0.725669
472 1 0.760442 0.161682 0.740497
65 1 0.908096 0.123367 0.740326
86 1 0.839472 0.135595 0.712885
387 1 0.0193063 0.22598 0.691315
402 1 0.0756469 0.236235 0.743275
81 1 0.157756 0.209406 0.744485
68 1 0.454455 0.168544 0.688426
50 1 0.466405 0.237424 0.729372
419 1 0.681194 0.173047 0.733337
64 1 0.793582 0.196409 0.724549
339 1 0.182736 0.306747 0.698871
454 1 0.185268 0.330861 0.687326
218 1 0.349298 0.267679 0.74948
37 1 0.197134 0.337612 0.706792
132 1 0.205647 0.348284 0.684361
94 1 0.266105 0.374 0.711167
108 1 0.634817 0.414981 0.713356
305 1 0.392766 0.479699 0.704289
385 1 0.335358 0.417245 0.695884
35 1 0.463613 0.498374 0.742989
226 1 0.87975 0.422451 0.715924
208 1 0.872163 0.44535 0.73109
189 1 0.304803 0.50664 0.732909
511 1 0.624871 0.572179 0.687504
504 1 0.0488201 0.648758 0.673806
203 1 0.586583 0.642575 0.687051
379 1 0.682188 0.617892 0.669913
167 1 0.530789 0.745674 0.721741
403 1 0.85231 0.713062 0.703925
330 1 0.406354 0.771813 0.711355
193 1 0.436788 0.781507 0.687135
277 1 0.757619 0.755462 0.684362
294 1 0.0206847 0.851125 0.668588
297 1 0.230349 0.864239 0.699904
174 1 0.191522 0.877225 0.697747
194 1 0.646423 0.896153 0.745581
82 1 0.933272 0.869623 0.737443
275 1 0.938357 0.84187 0.689175
225 1 0.364953 0.99659 0.711118
360 1 0.520593 0.96643 0.675359
164 1 0.577663 0.980823 0.67279
83 1 0.166738 0.0765346 0.822454
160 1 0.383222 0.0606054 0.752953