ITEM: TIMESTEP
500000
ITEM: NUMBER OF ATOMS
512
ITEM: BOX BOUNDS pp pp pp
0.0000000000000000e+00 4.0000000000000000e+01
0.0000000000000000e+00 4.0000000000000000e+01
0.0000000000000000e+00 4.0000000000000000e+01
ITEM: ATOMS id type xs ys zs
425 1 0.366534 0.0546044 0.033844
175 1 0.597653 0.0558875 0.0762477
445 1 0.887342 0.0668342 0.0773194
204 1 0.47389 0.134029 0.0229193
435 1 0.733731 0.110629 0.012013
30 1 0.831843 0.136884 0.0282547
476 1 0.169046 0.208667 0.0476565
3 1 0.0223604 0.323436 0.0368034
59 1 0.385551 0.285464 0.00773055
141 1 0.659312 0.30285 0.0590735
274 1 0.552808 0.335576 0.0600098
359 1 0.322377 0.482825 0.0479495
228 1 0.454828 0.425793 0.0815593
92 1 0.767187 0.470631 0.0736669
378 1 0.18967 0.524978 0.0556145
231 1 0.316728 0.558704 0.0377968
402 1 0.478604 0.534106 0.0628259
463 1 0.262772 0.659888 0.0142614
225 1 0.802528 0.65896 0.0192992
173 1 0.827748 0.64513 0.000365448
265 1 0.935604 0.645548 0.0626961
130 1 0.639352 0.740151 0.0282092
12 1 0.831654 0.741066 0.0649556
360 1 0.6509 0.792956 0.03453
87 1 0.874141 0.753586 0.0207136
116 1 0.0775003 0.846266 0.0696366
117 1 0.21251 0.84099 0.0521018
331 1 0.15829 0.918097 0.0716288
160 1 0.214987 0.0522353 0.114141
236 1 0.240312 0.0578819 0.119724
89 1 0.211804 0.0742206 0.124627
155 1 0.667508 0.148361 0.0950522
341 1 0.730808 0.138633 0.164191
194 1 0.0949766 0.170897 0.083506
420 1 0.359186 0.170942 0.109372
47 1 0.206207 0.280012 0.121634
248 1 0.572319 0.297912 0.0876825
196 1 0.205272 0.403765 0.136176
285 1 0.354206 0.337704 0.16089
457 1 0.00610729 0.430521 0.0999497
447 1 0.721656 0.417943 0.111997
133 1 0.779445 0.479603 0.11745
299 1 0.212482 0.528913 0.100551
419 1 0.54075 0.661941 0.128249
242 1 0.932173 0.649053 0.138452
182 1 0.626146 0.73574 0.153187
142 1 0.868107 0.704768 0.133672
325 1 0.577067 0.827536 0.133478
266 1 0.705216 0.825317 0.146125
428 1 0.0552013 0.854358 0.120816
353 1 0.309152 0.834047 0.144191
136 1 0.43712 0.915775 0.107096
375 1 0.578773 0.838303 0.162679
199 1 0.566391 0.857861 0.158448
286 1 0.586062 0.852801 0.127893
77 1 0.736832 0.903505 0.165462
433 1 0.863765 0.903503 0.0982978
82 1 0.437841 0.938383 0.0882074
180 1 0.637254 0.979724 0.119537
149 1 0.472915 0.0688111 0.188399
61 1 0.475192 0.0653927 0.211036
330 1 0.479467 0.0767432 0.238091
450 1 0.0364231 0.14857 0.200255
241 1 0.204075 0.1127 0.216162
75 1 0.466557 0.121709 0.183408
403 1 0.460111 0.0981156 0.17983
316 1 0.61232 0.116484 0.223476
373 1 0.387084 0.183197 0.179633
442 1 0.558537 0.189204 0.208157
249 1 0.556643 0.193453 0.182553
455 1 0.0189721 0.295168 0.240441
186 1 0.256773 0.273897 0.222755
280 1 0.659487 0.260508 0.231566
84 1 0.365437 0.369018 0.207742
448 1 0.41171 0.356399 0.208493
227 1 0.631387 0.397978 0.185987
434 1 0.639173 0.3597 0.236768
220 1 0.392201 0.444359 0.230299
474 1 0.428024 0.440829 0.192289
398 1 0.00221518 0.576576 0.219473
321 1 0.0182488 0.554458 0.247047
185 1 0.220698 0.572728 0.242863
203 1 0.628196 0.50015 0.22279
37 1 0.633656 0.519359 0.203913
258 1 0.965778 0.581369 0.22193
49 1 0.692049 0.610182 0.242628
118 1 0.868537 0.651617 0.187404
374 1 0.0110142 0.72062 0.176848
322 1 0.21672 0.704157 0.16857
93 1 0.230167 0.745104 0.211544
188 1 0.473226 0.726383 0.194276
276 1 0.84242 0.679381 0.177754
132 1 0.658345 0.826152 0.169278
395 1 0.916858 0.783895 0.239235
154 1 0.989595 0.788781 0.237267
103 1 0.730451 0.855661 0.203852
365 1 0.597794 0.958294 0.191763
498 1 0.828552 0.975713 0.184403
380 1 0.17259 0.0630915 0.305289
449 1 0.233001 0.00472218 0.330215
54 1 0.626588 0.0178461 0.284695
8 1 0.710958 0.0131436 0.306477
69 1 0.912558 0.0142283 0.300959
219 1 0.996974 0.00814216 0.264693
327 1 0.0995407 0.139167 0.285008
397 1 0.293828 0.0868884 0.252481
364 1 0.441629 0.11202 0.31042
382 1 0.872778 0.198977 0.317449
385 1 0.956326 0.227166 0.319065
486 1 0.99514 0.310057 0.309591
383 1 0.143868 0.406599 0.27037
393 1 0.179066 0.39177 0.254659
399 1 0.515534 0.414753 0.277481
126 1 0.713255 0.369759 0.309677
90 1 0.953974 0.39708 0.285232
161 1 0.142143 0.437275 0.301616
501 1 0.519785 0.475831 0.29888
296 1 0.932275 0.491913 0.286007
417 1 0.60374 0.556845 0.280166
485 1 0.134924 0.586483 0.327991
306 1 0.850742 0.632382 0.295763
114 1 0.127851 0.704394 0.266209
438 1 0.386689 0.743463 0.324535
131 1 0.628817 0.721265 0.250626
484 1 0.920291 0.682534 0.269736
444 1 0.0976005 0.810144 0.251393
226 1 0.288928 0.777738 0.298787
409 1 0.362234 0.775443 0.324614
232 1 0.384979 0.81344 0.284875
105 1 0.0802739 0.878581 0.326505
388 1 0.725108 0.841369 0.330352
79 1 0.145332 0.920878 0.295516
351 1 0.99592 0.968568 0.253416
358 1 0.986627 0.921283 0.28827
63 1 0.117678 0.0795141 0.381815
29 1 0.195935 0.0150363 0.373443
379 1 0.680082 0.0587132 0.406655
58 1 0.981203 0.00147739 0.400848
174 1 0.979208 0.110883 0.360961
140 1 0.421373 0.193755 0.347282
237 1 0.452114 0.18307 0.409305
86 1 0.655091 0.168359 0.389693
328 1 0.407119 0.283403 0.33996
500 1 0.674713 0.262928 0.333943
157 1 0.856611 0.285282 0.346647
386 1 0.200132 0.358891 0.394395
51 1 0.46784 0.364431 0.36231
32 1 0.650528 0.399239 0.365549
305 1 0.952265 0.367643 0.336937
333 1 0.184095 0.423607 0.375678
421 1 0.560353 0.486621 0.352184
223 1 0.172248 0.510266 0.383209
411 1 0.761671 0.561039 0.376748
13 1 0.216476 0.608674 0.413468
471 1 0.609032 0.64447 0.405948
85 1 0.168154 0.712169 0.405719
112 1 0.729424 0.683747 0.414472
396 1 0.790438 0.71236 0.35123
469 1 0.817158 0.721884 0.361569
478 1 0.810083 0.741597 0.373347
128 1 0.183839 0.799796 0.402153
55 1 0.341839 0.780671 0.333756
138 1 0.397832 0.794728 0.33462
462 1 0.390398 0.830134 0.351711
416 1 0.511517 0.813315 0.403745
208 1 0.749785 0.753628 0.415493
217 1 0.684323 0.830957 0.370828
308 1 0.821555 0.802281 0.389362
302 1 0.829041 0.817851 0.361793
414 1 0.789346 0.756377 0.39586
25 1 0.76298 0.791458 0.338737
369 1 0.0644173 0.904102 0.394887
323 1 0.0517192 0.881904 0.382444
251 1 0.166193 0.890633 0.357275
31 1 0.419073 0.846287 0.362523
110 1 0.445605 0.852128 0.355171
124 1 0.63227 0.8786 0.398623
426 1 0.612968 0.910902 0.380206
468 1 0.812202 0.837852 0.343927
122 1 0.840695 0.833959 0.34628
205 1 0.846933 0.875056 0.349825
262 1 0.00587609 0.992893 0.33582
181 1 0.118221 0.962834 0.360866
139 1 0.183935 0.937509 0.355052
176 1 0.210793 0.998197 0.34805
96 1 0.201083 0.980975 0.370515
81 1 0.495065 0.930697 0.350735
253 1 0.0113755 0.072375 0.421554
62 1 0.123671 0.0432813 0.481004
235 1 0.441883 0.0422194 0.483887
218 1 0.00745832 0.108264 0.474664
452 1 0.762506 0.153254 0.452495
127 1 0.23072 0.236477 0.494338
148 1 0.436384 0.235691 0.47211
91 1 0.591747 0.201235 0.46697
303 1 0.22307 0.251098 0.465799
4 1 0.582126 0.298237 0.460945
470 1 0.603055 0.294867 0.447961
370 1 0.689647 0.317473 0.464881
146 1 0.940943 0.271683 0.49331
48 1 0.077451 0.395356 0.433324
2 1 0.216665 0.384087 0.468275
39 1 0.306138 0.387731 0.41677
268 1 0.318829 0.374122 0.475895
22 1 0.679735 0.398628 0.470056
206 1 0.838494 0.345697 0.453404
315 1 0.885458 0.475095 0.429692
345 1 0.913679 0.474777 0.480823
193 1 0.232328 0.52737 0.486859
391 1 0.256529 0.527699 0.419453
240 1 0.969498 0.573671 0.466075
284 1 0.144918 0.609773 0.423424
473 1 0.307375 0.666121 0.451634
454 1 0.278767 0.65944 0.435738
312 1 0.78826 0.624477 0.429536
270 1 0.0486071 0.681687 0.437112
57 1 0.0937225 0.740086 0.497881
480 1 0.20987 0.722616 0.48014
171 1 0.834062 0.738468 0.425702
342 1 0.878538 0.732611 0.487484
336 1 0.609902 0.815823 0.432128
458 1 0.0184868 0.90276 0.433284
272 1 0.241029 0.847255 0.465369
100 1 0.509525 0.848139 0.480781
430 1 0.601325 0.90176 0.492908
356 1 0.248032 0.970486 0.496944
292 1 0.270037 0.985921 0.485649
275 1 0.267395 0.996545 0.454918
167 1 0.472547 0.938226 0.459732
366 1 0.624613 0.97996 0.432011
71 1 0.688437 0.959032 0.422855
415 1 0.924214 0.958576 0.426438
46 1 0.958084 0.968315 0.494456
400 1 0.121042 0.0621046 0.551283
60 1 0.143688 0.064265 0.570038
287 1 0.353353 0.0323449 0.530153
340 1 0.780612 0.0542279 0.523839
273 1 0.468594 0.152991 0.543192
290 1 0.50487 0.108501 0.537405
493 1 0.798488 0.181258 0.53105
488 1 0.901521 0.195682 0.568847
239 1 0.118857 0.269092 0.573618
102 1 0.22943 0.331406 0.54234
329 1 0.167181 0.288437 0.517169
464 1 0.594995 0.283751 0.568016
313 1 0.744794 0.265597 0.505418
495 1 0.839558 0.266134 0.518755
35 1 0.914336 0.278009 0.511089
45 1 0.977317 0.299717 0.513889
339 1 0.0564187 0.410357 0.553726
40 1 0.442319 0.397567 0.56214
506 1 0.790712 0.381358 0.534545
508 1 0.791693 0.355995 0.525399
24 1 0.0804029 0.429632 0.561025
460 1 0.0685801 0.491828 0.574911
123 1 0.128841 0.46521 0.531564
294 1 0.571034 0.44817 0.568592
210 1 0.796962 0.443506 0.554625
104 1 0.216244 0.566547 0.52393
477 1 0.188598 0.56946 0.515984
443 1 0.665173 0.515269 0.562928
509 1 0.511373 0.592204 0.513922
335 1 0.728313 0.654837 0.518987
496 1 0.847756 0.646853 0.573807
269 1 0.00673763 0.698856 0.570902
277 1 0.0145535 0.677231 0.518133
209 1 0.178118 0.674109 0.571536
19 1 0.405696 0.69857 0.527947
229 1 0.450503 0.798866 0.569276
363 1 0.0946712 0.904193 0.540538
451 1 0.335719 0.840137 0.500615
252 1 0.538861 0.889093 0.541016
326 1 0.899464 0.876883 0.568488
97 1 0.139536 0.935253 0.51378
314 1 0.931567 0.95091 0.50492
279 1 0.167793 0.00265321 0.63309
479 1 0.818411 0.052664 0.632352
271 1 0.2263 0.111312 0.666216
101 1 0.294268 0.151719 0.585386
281 1 0.518252 0.100987 0.611071
224 1 0.566437 0.124641 0.647779
424 1 0.965531 0.132012 0.659044
390 1 0.217563 0.178115 0.662978
202 1 0.695583 0.201094 0.661914
259 1 0.639278 0.291489 0.598333
233 1 0.371395 0.36204 0.63553
135 1 0.800693 0.367122 0.618128
52 1 0.0687796 0.429777 0.654365
267 1 0.158415 0.422718 0.663508
53 1 0.405054 0.442152 0.628027
17 1 0.653513 0.486955 0.657109
153 1 0.667963 0.466546 0.65569
78 1 0.853694 0.44104 0.644487
350 1 0.872664 0.47228 0.626104
163 1 0.122193 0.559544 0.609382
26 1 0.173753 0.527306 0.61533
459 1 0.394293 0.576471 0.600765
453 1 0.637332 0.501828 0.665584
472 1 0.742213 0.530058 0.589552
408 1 0.0739796 0.622363 0.648481
301 1 0.761353 0.642343 0.602211
246 1 0.0475476 0.680929 0.610009
368 1 0.311709 0.701435 0.637882
106 1 0.979641 0.678141 0.653737
291 1 0.961347 0.69207 0.621161
440 1 0.183621 0.754631 0.627503
41 1 0.52685 0.768622 0.642012
491 1 0.925721 0.792561 0.65339
34 1 0.515668 0.91157 0.586572
109 1 0.798875 0.893309 0.603437
67 1 0.767982 0.876853 0.618457
156 1 0.152934 0.988137 0.649273
311 1 0.201131 0.994128 0.658053
43 1 0.0521346 0.0755041 0.682256
72 1 0.183206 0.0478606 0.696524
300 1 0.0979048 0.124084 0.691919
348 1 0.217091 0.106096 0.688735
467 1 0.945823 0.127028 0.691604
42 1 0.118006 0.228164 0.715989
289 1 0.21132 0.202171 0.733042
178 1 0.290513 0.18535 0.701557
293 1 0.532499 0.197688 0.69279
490 1 0.0870183 0.32839 0.709419
298 1 0.788561 0.319849 0.672536
437 1 0.156722 0.369031 0.666993
108 1 0.468052 0.374172 0.706804
44 1 0.623685 0.415971 0.742646
74 1 0.526362 0.426903 0.701031
234 1 0.641915 0.425019 0.682231
213 1 0.622186 0.483289 0.703245
80 1 0.586094 0.442823 0.740174
215 1 0.605198 0.444493 0.708751
354 1 0.60847 0.488547 0.722864
406 1 0.607746 0.485268 0.746265
192 1 0.628518 0.440229 0.713815
76 1 0.65862 0.496968 0.684632
441 1 0.630901 0.479676 0.727705
18 1 0.59993 0.467642 0.732888
346 1 0.638631 0.463606 0.705404
95 1 0.617405 0.463772 0.714386
261 1 0.613166 0.47234 0.682464
144 1 0.662047 0.466939 0.712395
38 1 0.659727 0.465223 0.683258
387 1 0.646137 0.488331 0.710826
201 1 0.653378 0.489945 0.73934
65 1 0.625816 0.41702 0.698817
377 1 0.614752 0.434726 0.732963
197 1 0.651292 0.444089 0.697747
263 1 0.638902 0.46929 0.674183
503 1 0.648599 0.451665 0.749344
456 1 0.638558 0.433323 0.733052
152 1 0.64901 0.423068 0.712012
10 1 0.630289 0.496427 0.745313
264 1 0.623452 0.438671 0.690241
505 1 0.623396 0.45782 0.736641
147 1 0.644867 0.459913 0.726731
21 1 0.663407 0.443277 0.67321
247 1 0.679116 0.480265 0.675973
511 1 0.667894 0.46988 0.737887
94 1 0.668119 0.424316 0.749654
413 1 0.754606 0.424398 0.71851
120 1 0.00242195 0.531627 0.667129
11 1 0.093059 0.551805 0.690177
212 1 0.477516 0.569268 0.675114
384 1 0.598503 0.508905 0.712926
111 1 0.640633 0.505822 0.725308
15 1 0.606687 0.507381 0.739736
304 1 0.662787 0.52203 0.682486
394 1 0.951013 0.568646 0.739707
332 1 0.0721505 0.614918 0.670888
166 1 0.154682 0.72171 0.682803
113 1 0.256962 0.717146 0.708344
466 1 0.490282 0.705004 0.742305
338 1 0.655276 0.701328 0.69031
489 1 0.413508 0.801023 0.686691
257 1 0.581373 0.81125 0.739617
6 1 0.915488 0.798542 0.685838
361 1 0.309347 0.916145 0.66815
344 1 0.753424 0.903162 0.699698
7 1 0.218793 0.961035 0.670843
432 1 0.632234 0.93707 0.703939
245 1 0.201598 0.0468862 0.786515
256 1 0.460449 0.0318881 0.810466
177 1 0.343347 0.145532 0.822155
221 1 0.618946 0.157934 0.799778
73 1 0.983145 0.110434 0.76949
150 1 0.105875 0.212374 0.829353
320 1 0.174931 0.248577 0.766238
151 1 0.886229 0.28242 0.801397
324 1 0.862195 0.292165 0.794518
66 1 0.161639 0.404388 0.813536
189 1 0.135437 0.401683 0.826722
492 1 0.61571 0.413434 0.765264
510 1 0.108908 0.493196 0.806045
145 1 0.309294 0.440977 0.754858
461 1 0.429166 0.451747 0.752133
64 1 0.476665 0.458897 0.798152
14 1 0.539425 0.455921 0.756733
283 1 0.617519 0.446038 0.791354
343 1 0.598954 0.488689 0.770086
446 1 0.621247 0.495892 0.771678
376 1 0.628449 0.489803 0.794211
16 1 0.633572 0.465389 0.791827
158 1 0.606277 0.457971 0.760821
244 1 0.63805 0.473388 0.75411
295 1 0.632422 0.451907 0.766687
355 1 0.628553 0.428489 0.778867
195 1 0.592796 0.469866 0.784182
134 1 0.618824 0.436417 0.756591
367 1 0.61804 0.471926 0.774182
475 1 0.644554 0.43138 0.759074
88 1 0.64376 0.487027 0.771947
427 1 0.768373 0.458272 0.779941
494 1 0.00608919 0.527655 0.795423
407 1 0.655907 0.502151 0.788025
198 1 0.653653 0.510051 0.761829
70 1 0.726044 0.569769 0.777872
352 1 0.898712 0.508907 0.794478
119 1 0.947319 0.544147 0.79121
401 1 0.97304 0.539838 0.78759
297 1 0.923811 0.551267 0.788001
418 1 0.0132972 0.595739 0.789015
168 1 0.016008 0.665908 0.757174
125 1 0.100552 0.596798 0.756439
179 1 0.126218 0.642098 0.782768
465 1 0.420149 0.664727 0.771062
238 1 0.559342 0.601634 0.75644
404 1 0.590078 0.59639 0.828958
288 1 0.797197 0.660361 0.826976
214 1 0.787594 0.621041 0.765901
412 1 0.940319 0.637373 0.820615
337 1 0.255691 0.740549 0.753539
137 1 0.423608 0.737341 0.768635
190 1 0.55034 0.720741 0.806649
216 1 0.885922 0.741789 0.805892
482 1 0.871248 0.680922 0.814397
483 1 0.462769 0.774634 0.77239
129 1 0.758363 0.784329 0.758045
309 1 0.856259 0.781147 0.822528
392 1 0.222051 0.931332 0.782225
200 1 0.506579 0.995354 0.790631
282 1 0.304257 0.0312814 0.905105
165 1 0.455354 0.0283276 0.836822
362 1 0.600817 0.0458846 0.849376
170 1 0.726139 0.008957 0.906457
502 1 0.72423 0.0403897 0.860928
334 1 0.42217 0.154814 0.861862
512 1 0.771949 0.154979 0.878831
115 1 0.970593 0.148747 0.891778
169 1 0.146677 0.315547 0.89052
429 1 0.709597 0.310148 0.869486
243 1 0.000849056 0.372193 0.873392
307 1 0.139055 0.340356 0.9092
68 1 0.875961 0.381706 0.894735
33 1 0.917884 0.410833 0.893283
389 1 0.113705 0.494572 0.857226
254 1 0.322632 0.497751 0.911808
371 1 0.339034 0.443619 0.899811
507 1 0.342905 0.418076 0.908409
50 1 0.510664 0.481587 0.913369
28 1 0.60688 0.464216 0.852985
381 1 0.721162 0.470359 0.878263
310 1 0.875235 0.485415 0.8748
410 1 0.264849 0.532831 0.845568
1 1 0.077061 0.597234 0.858613
278 1 0.425925 0.613411 0.880194
143 1 0.579225 0.658068 0.895194
162 1 0.2235 0.740498 0.850877
260 1 0.276897 0.733682 0.916057
230 1 0.369424 0.695203 0.913029
439 1 0.637572 0.673666 0.87348
319 1 0.607244 0.695009 0.85812
183 1 0.701308 0.733522 0.851338
211 1 0.0600377 0.801496 0.835142
222 1 0.794 0.88881 0.873118
187 1 0.0726522 0.984932 0.837039
164 1 0.0795261 0.973941 0.893183
497 1 0.127076 0.943227 0.902856
207 1 0.132436 0.935304 0.871769
36 1 0.438297 0.98231 0.841938
83 1 0.57435 0.980695 0.857456
347 1 0.741965 0.921941 0.858543
422 1 0.360376 0.0475858 0.926341
357 1 0.795393 0.148462 0.963741
121 1 0.548137 0.167569 0.962526
250 1 0.00742728 0.314128 0.969391
184 1 0.0672234 0.280023 0.949636
349 1 0.405631 0.295158 0.939466
107 1 0.644739 0.256052 0.937139
23 1 0.66548 0.324375 0.933934
372 1 0.872236 0.276319 0.941705
481 1 0.460317 0.333724 0.994769
431 1 0.661968 0.360586 0.973379
423 1 0.670704 0.350421 0.954967
405 1 0.158624 0.561584 0.94626
504 1 0.176152 0.536818 0.938194
487 1 0.181922 0.573989 0.949022
318 1 0.174499 0.557231 0.927507
436 1 0.437054 0.5245 0.916764
159 1 0.723188 0.536773 0.937192
20 1 0.885153 0.523995 0.962532
9 1 0.11347 0.634165 0.971188
99 1 0.361849 0.588266 0.984588
172 1 0.513322 0.633916 0.999238
317 1 0.768457 0.664735 0.991692
191 1 0.905825 0.586289 0.989416
5 1 0.618894 0.68721 0.93307
255 1 0.722591 0.74179 0.944229
27 1 0.375196 0.79736 0.956938
98 1 0.856365 0.773724 0.922141
499 1 0.303716 0.85314 0.951502
56 1 0.160965 0.961315 0.982085
ITEM: TIMESTEP
510000
ITEM: NUMBER OF ATOMS
512
ITEM: BOX BOUNDS pp pp pp
0.0000000000000000e+00 4.0000000000000000e+01
0.0000000000000000e+00 4.0000000000000000e+01
0.0000000000000000e+00 4.0000000000000000e+01
ITEM: ATOMS id type xs ys zs
318 1 0.17867 0.057612 0.0503519
445 1 0.358398 0.0626108 0.0599369
82 1 0.414729 0.0397358 0.083178
436 1 0.470827 0.0709087 0.0664312
469 1 0.448347 0.0124815 0.0201638
254 1 0.527385 0.0527778 0.0653541
388 1 0.921898 0.0513715 0.057478
119 1 0.0769345 0.142078 0.0669996
498 1 0.423406 0.126668 0.059351
394 1 0.971971 0.0972163 0.0264291
223 1 0.111351 0.200279 0.0187202
479 1 0.912462 0.221219 0.0461259
306 1 0.897742 0.197559 0.0784806
55 1 0.208339 0.276347 0.0272303
228 1 0.201999 0.299808 0.042575
212 1 0.378515 0.33082 0.0116916
303 1 0.809184 0.27984 0.0625488
466 1 0.967944 0.325626 0.0228352
319 1 0.176868 0.404734 0.024534
365 1 0.211817 0.33986 0.00754658
173 1 0.282789 0.44192 0.0783357
261 1 0.584536 0.443806 0.0704515
345 1 0.260332 0.505819 0.047191
239 1 0.601545 0.551259 0.0134405
17 1 0.89299 0.542395 0.0684654
404 1 0.446507 0.641561 0.0750013
502 1 0.0673211 0.698682 0.0498781
474 1 0.363916 0.691546 0.0265623
256 1 0.693835 0.682381 0.070221
217 1 0.040863 0.892063 0.0578776
410 1 0.110009 0.876921 0.0289155
105 1 0.285783 0.851364 0.0778757
155 1 0.707775 0.864246 0.01282
473 1 0.671699 0.906285 0.00465236
113 1 0.952985 0.908801 0.0339348
142 1 0.687103 0.985429 0.0432559
279 1 0.755027 0.965138 0.0170546
192 1 0.79128 0.978482 0.0580761
224 1 0.0282939 0.0784274 0.10732
100 1 0.390045 0.01401 0.142854
207 1 0.4339 0.0335212 0.0958988
478 1 0.518406 0.0395168 0.0889931
252 1 0.156711 0.142933 0.0882588
287 1 0.374749 0.13536 0.133872
187 1 0.440784 0.145557 0.0986881
246 1 0.700404 0.129222 0.143472
476 1 0.138159 0.189719 0.12011
363 1 0.294021 0.224052 0.113193
452 1 0.263083 0.191327 0.0854576
440 1 0.562343 0.185525 0.132617
218 1 0.157298 0.319385 0.130776
42 1 0.629417 0.256787 0.10821
337 1 0.991499 0.253919 0.163405
448 1 0.285368 0.400678 0.102398
196 1 0.463849 0.382115 0.120347
186 1 0.545948 0.373912 0.128153
297 1 0.836235 0.386274 0.0968927
454 1 0.972869 0.398973 0.117724
52 1 0.192588 0.459169 0.0991476
178 1 0.271382 0.443899 0.129056
512 1 0.273617 0.466153 0.121851
392 1 0.431056 0.420519 0.121506
482 1 0.594961 0.438434 0.0932058
491 1 0.692537 0.471182 0.113937
438 1 0.22245 0.503 0.0875234
277 1 0.714104 0.521366 0.161484
368 1 0.755512 0.504161 0.154669
47 1 0.0791711 0.661286 0.150861
373 1 0.458931 0.632376 0.153121
97 1 0.575801 0.591002 0.0875701
424 1 0.828941 0.701675 0.0924427
68 1 0.352576 0.791224 0.159768
486 1 0.660043 0.756998 0.0945018
439 1 0.605703 0.807967 0.144744
414 1 0.0626726 0.865519 0.124312
322 1 0.695748 0.89066 0.166598
442 1 0.178946 0.982709 0.11597
268 1 0.554272 0.943398 0.0950642
282 1 0.385674 0.049767 0.206417
357 1 0.955775 0.0785728 0.182955
25 1 0.954892 0.0174573 0.20298
219 1 0.420376 0.0992815 0.204141
403 1 0.611544 0.10048 0.236691
271 1 0.697907 0.126765 0.167518
108 1 0.796077 0.119953 0.191591
347 1 0.794602 0.158675 0.208015
4 1 0.0929643 0.192777 0.176343
12 1 0.153623 0.188636 0.209233
437 1 0.192743 0.186843 0.209906
457 1 0.438883 0.200286 0.248384
69 1 0.46306 0.248639 0.179679
281 1 0.0518944 0.288989 0.171936
137 1 0.0967934 0.254685 0.226946
487 1 0.58257 0.28763 0.211454
397 1 0.216997 0.383863 0.227966
220 1 0.706682 0.382252 0.221725
123 1 0.819213 0.397598 0.201726
267 1 0.0376899 0.461941 0.196296
95 1 0.0815895 0.464383 0.208827
489 1 0.162719 0.423234 0.197022
375 1 0.232176 0.549932 0.203281
292 1 0.95267 0.622296 0.222634
54 1 0.990117 0.606644 0.222986
396 1 0.303762 0.736606 0.186875
331 1 0.0611286 0.786965 0.177152
118 1 0.304897 0.758017 0.215845
127 1 0.52231 0.829557 0.223407
225 1 0.322062 0.912823 0.171317
496 1 0.68085 0.851596 0.166964
92 1 0.689369 0.854876 0.202562
250 1 0.387297 0.927322 0.171148
151 1 0.456376 0.943088 0.248169
222 1 0.496407 0.937799 0.182834
276 1 0.522051 0.95563 0.167067
2 1 0.819522 0.920821 0.232203
9 1 0.876205 0.973377 0.211053
385 1 0.934494 0.934392 0.228912
278 1 0.468027 0.0240921 0.26885
30 1 0.523026 0.0150882 0.250344
417 1 0.530629 0.0128458 0.286252
327 1 0.659951 0.0404613 0.301522
19 1 0.738406 0.044894 0.276213
185 1 0.544869 0.15103 0.330813
426 1 0.750217 0.141608 0.253412
418 1 0.262028 0.23942 0.256507
89 1 0.548159 0.183775 0.315242
320 1 0.889183 0.203284 0.29322
359 1 0.578858 0.285483 0.297097
499 1 0.633927 0.292814 0.300073
429 1 0.395376 0.385915 0.25716
262 1 0.601091 0.412808 0.263706
266 1 0.66016 0.409048 0.302527
241 1 0.373418 0.464398 0.267964
419 1 0.384009 0.56933 0.280293
57 1 0.773694 0.541741 0.318948
121 1 0.0631258 0.61821 0.288243
378 1 0.112598 0.622092 0.283063
298 1 0.401326 0.587821 0.304786
8 1 0.992836 0.639216 0.277995
203 1 0.324979 0.684904 0.30092
90 1 0.291731 0.67793 0.300563
194 1 0.553306 0.699744 0.28318
159 1 0.132193 0.798447 0.307165
483 1 0.722601 0.859651 0.315881
180 1 0.846664 0.967661 0.314336
205 1 0.965402 0.0408858 0.396564
330 1 0.999753 0.00139975 0.380457
230 1 0.0209935 0.143366 0.381134
485 1 0.191443 0.102253 0.35143
342 1 0.566217 0.125314 0.364725
120 1 0.716582 0.137042 0.409984
24 1 0.714693 0.140406 0.372233
150 1 0.809212 0.166151 0.352097
434 1 0.192717 0.172412 0.344873
270 1 0.356585 0.216438 0.365426
79 1 0.46042 0.181357 0.349998
96 1 0.608435 0.233833 0.356877
62 1 0.829591 0.175438 0.338232
114 1 0.945716 0.174201 0.351552
329 1 0.0555245 0.302203 0.350072
104 1 0.320407 0.308003 0.404691
51 1 0.712615 0.282982 0.349508
377 1 0.950131 0.325362 0.371005
286 1 0.0463829 0.356728 0.338001
202 1 0.0252038 0.409059 0.392985
64 1 0.203801 0.414627 0.344413
379 1 0.563337 0.356435 0.407542
265 1 0.529109 0.387291 0.35936
20 1 0.597992 0.378802 0.339878
455 1 0.954853 0.393903 0.348011
416 1 0.433404 0.436428 0.409578
102 1 0.814869 0.496952 0.392903
39 1 0.822788 0.482139 0.412903
333 1 0.357535 0.634073 0.380731
510 1 0.571505 0.595044 0.394866
161 1 0.175647 0.678933 0.341592
353 1 0.233588 0.706115 0.366177
325 1 0.240009 0.731909 0.407504
129 1 0.372008 0.736348 0.409178
477 1 0.952552 0.693019 0.380436
171 1 0.0143581 0.824846 0.354572
451 1 0.177521 0.818552 0.350169
464 1 0.350563 0.804794 0.391481
154 1 0.474243 0.821183 0.370704
340 1 0.861441 0.767362 0.407065
273 1 0.656457 0.858824 0.354449
328 1 0.997372 0.857124 0.388606
493 1 0.0433915 0.977643 0.37771
253 1 0.103998 0.953021 0.356369
157 1 0.79144 0.955575 0.364377
235 1 0.757163 0.950414 0.392239
504 1 0.249356 0.0301248 0.464106
362 1 0.64489 0.0340793 0.422279
163 1 0.00184675 0.0958417 0.474202
66 1 0.558463 0.115295 0.439681
336 1 0.809768 0.160829 0.437079
206 1 0.290576 0.207416 0.430781
260 1 0.305991 0.211097 0.446811
288 1 0.29063 0.248118 0.493953
213 1 0.359818 0.226056 0.47573
133 1 0.518208 0.174734 0.485945
190 1 0.268747 0.328018 0.456834
75 1 0.619019 0.312649 0.460322
15 1 0.14784 0.350913 0.49229
431 1 0.263246 0.363337 0.445058
73 1 0.552843 0.342491 0.426327
86 1 0.627985 0.336241 0.47143
441 1 0.107368 0.483578 0.495358
310 1 0.443648 0.473048 0.490772
29 1 0.668724 0.418322 0.484612
408 1 0.395482 0.524476 0.449771
372 1 0.485585 0.555005 0.485101
459 1 0.684743 0.546913 0.417
334 1 0.703748 0.551541 0.490936
405 1 0.0331848 0.593962 0.424234
34 1 0.857641 0.63603 0.473104
179 1 0.132252 0.741604 0.487431
240 1 0.277701 0.698709 0.492043
36 1 0.31214 0.717416 0.471292
1 1 0.635707 0.744745 0.420789
444 1 0.750619 0.714817 0.480256
492 1 0.194088 0.789437 0.419278
472 1 0.783297 0.821829 0.493029
3 1 0.0263101 0.905276 0.489293
168 1 0.169261 0.858268 0.452075
358 1 0.194181 0.869391 0.452867
53 1 0.246874 0.876477 0.433501
43 1 0.961233 0.885226 0.489535
233 1 0.494378 0.947434 0.423188
77 1 0.411106 0.00258246 0.547829
257 1 0.406494 0.0702438 0.546971
216 1 0.615565 0.0310157 0.571415
103 1 0.271385 0.124115 0.56852
389 1 0.428053 0.109744 0.509153
184 1 0.495567 0.127282 0.526375
481 1 0.000978379 0.180517 0.568814
145 1 0.301642 0.17707 0.519978
370 1 0.339698 0.196733 0.55226
126 1 0.4622 0.23058 0.576782
124 1 0.711716 0.223366 0.540369
400 1 0.90373 0.236033 0.556833
338 1 0.11581 0.253433 0.502333
291 1 0.237885 0.262393 0.562459
237 1 0.756024 0.316612 0.537447
85 1 0.598011 0.355471 0.516957
191 1 0.91458 0.349406 0.581649
234 1 0.928907 0.336467 0.51666
402 1 0.955092 0.364828 0.575819
332 1 0.920845 0.379057 0.509361
321 1 0.567997 0.445887 0.532051
215 1 0.836418 0.492088 0.578702
312 1 0.343269 0.524316 0.576091
26 1 0.543503 0.530682 0.573246
509 1 0.528955 0.576015 0.512803
309 1 0.997873 0.535525 0.551345
59 1 0.370147 0.5855 0.509498
462 1 0.698784 0.590219 0.541642
58 1 0.995673 0.654068 0.583086
221 1 0.384742 0.675286 0.546808
140 1 0.426389 0.749021 0.577596
93 1 0.449121 0.749329 0.576829
248 1 0.462437 0.706227 0.530178
28 1 0.75096 0.709673 0.561695
141 1 0.116377 0.831138 0.500349
274 1 0.542686 0.8212 0.509529
275 1 0.639565 0.817066 0.546268
60 1 0.419831 0.904505 0.56094
109 1 0.0833279 0.989772 0.502338
76 1 0.0608898 0.961917 0.559846
116 1 0.362367 0.969926 0.575614
323 1 0.184017 0.0174104 0.665978
72 1 0.48261 0.0723542 0.647304
361 1 0.0664353 0.0926339 0.584216
181 1 0.97322 0.136694 0.6227
249 1 0.184794 0.249431 0.587149
139 1 0.00209096 0.281006 0.5919
393 1 0.325121 0.299573 0.596562
61 1 0.48539 0.317863 0.609099
227 1 0.833798 0.252521 0.664943
166 1 0.198533 0.388841 0.585245
349 1 0.317346 0.41337 0.591341
229 1 0.301018 0.386256 0.644233
11 1 0.669877 0.414848 0.655598
360 1 0.389149 0.455343 0.620955
188 1 0.833739 0.429332 0.633239
201 1 0.943643 0.477807 0.64859
272 1 0.916991 0.494049 0.665186
226 1 0.0342346 0.540035 0.618192
425 1 0.0256752 0.545674 0.587856
189 1 0.112844 0.561839 0.663128
16 1 0.761704 0.518056 0.592403
78 1 0.835167 0.578654 0.633371
384 1 0.888693 0.53703 0.61536
44 1 0.902438 0.51798 0.612133
367 1 0.857826 0.582216 0.59649
255 1 0.911342 0.512287 0.652341
167 1 0.846096 0.550394 0.654337
352 1 0.850423 0.537992 0.627256
247 1 0.894624 0.524737 0.637567
407 1 0.849606 0.567067 0.615668
376 1 0.912432 0.569477 0.622345
147 1 0.870095 0.523135 0.629677
152 1 0.875107 0.525726 0.659132
446 1 0.910136 0.54522 0.627411
427 1 0.912304 0.579365 0.646077
48 1 0.890871 0.560397 0.613648
18 1 0.862645 0.562079 0.637319
415 1 0.879906 0.543997 0.634334
453 1 0.862306 0.572029 0.661505
354 1 0.893041 0.565382 0.638283
355 1 0.875231 0.551746 0.656225
343 1 0.890223 0.506226 0.660715
263 1 0.879098 0.582465 0.647499
244 1 0.897058 0.54548 0.651995
38 1 0.875438 0.573919 0.622908
65 1 0.868573 0.551289 0.613654
387 1 0.896409 0.575251 0.663776
382 1 0.880013 0.504425 0.607719
158 1 0.923014 0.529832 0.609502
295 1 0.941662 0.570185 0.640052
264 1 0.939754 0.5205 0.659783
70 1 0.938667 0.541185 0.640517
88 1 0.922797 0.558828 0.64365
134 1 0.943142 0.519782 0.63139
172 1 0.921455 0.524426 0.63496
456 1 0.943312 0.556485 0.66302
346 1 0.918202 0.537906 0.65498
111 1 0.918743 0.562803 0.665753
488 1 0.126569 0.638683 0.588586
501 1 0.108244 0.619234 0.602394
470 1 0.281208 0.629653 0.619293
153 1 0.605682 0.59996 0.614534
383 1 0.629041 0.596976 0.626151
503 1 0.815489 0.591678 0.638704
304 1 0.856613 0.590505 0.628311
94 1 0.894505 0.591974 0.631853
50 1 0.894561 0.602301 0.654035
314 1 0.838163 0.598657 0.64591
283 1 0.932692 0.590657 0.64909
497 1 0.917415 0.599083 0.633189
269 1 0.447168 0.714928 0.653059
84 1 0.439676 0.699434 0.632813
35 1 0.457676 0.682302 0.640662
32 1 0.887036 0.73237 0.602946
81 1 0.996886 0.667382 0.636399
197 1 0.927063 0.701278 0.664792
366 1 0.138774 0.783937 0.607101
443 1 0.526674 0.784628 0.657782
41 1 0.512279 0.762139 0.615363
198 1 0.510819 0.811814 0.642885
460 1 0.0639936 0.894257 0.653897
386 1 0.408848 0.871463 0.646832
398 1 0.645882 0.90548 0.657093
132 1 0.121196 0.925671 0.637228
395 1 0.236459 0.998756 0.614576
301 1 0.348586 0.918776 0.632059
136 1 0.49468 0.974938 0.663961
458 1 0.622404 0.949972 0.639996
174 1 0.902111 0.980859 0.634894
351 1 0.400831 0.0354142 0.734635
258 1 0.364026 0.0082638 0.695935
505 1 0.127136 0.163602 0.682702
326 1 0.731138 0.15004 0.723022
422 1 0.841916 0.100488 0.683954
175 1 0.105522 0.199396 0.705837
67 1 0.346618 0.219236 0.729792
449 1 0.365049 0.223679 0.696353
339 1 0.459654 0.204138 0.73829
480 1 0.437818 0.184651 0.681195
7 1 0.824491 0.226949 0.697374
27 1 0.122167 0.264501 0.686345
98 1 0.173253 0.257858 0.715633
156 1 0.352752 0.268108 0.744566
245 1 0.418018 0.251411 0.686804
146 1 0.783962 0.302123 0.705634
484 1 0.00839745 0.401922 0.724868
381 1 0.184549 0.346844 0.676108
91 1 0.409336 0.394935 0.736134
49 1 0.793156 0.388182 0.745746
56 1 0.722295 0.454641 0.683711
500 1 0.474648 0.571331 0.684784
138 1 0.554407 0.577269 0.720058
176 1 0.901409 0.528353 0.671531
80 1 0.887387 0.555826 0.67556
299 1 0.869033 0.507195 0.694578
296 1 0.905899 0.568685 0.684278
242 1 0.922356 0.514655 0.677199
315 1 0.959019 0.563796 0.683481
411 1 0.944741 0.580139 0.668799