ITEM: TIMESTEP
0
ITEM: NUMBER OF ATOMS
512
ITEM: BOX BOUNDS pp pp pp
0.0000000000000000e+00 4.0000000000000000e+01
0.0000000000000000e+00 4.0000000000000000e+01
0.0000000000000000e+00 4.0000000000000000e+01
ITEM: ATOMS id type xs ys zs
261 1 0.492348 0.0799823 0.00787774
60 1 0.813921 0.0325211 0.0228005
316 1 0.0274377 0.0879235 0.0563696
324 1 0.133507 0.110221 0.0426461
234 1 0.518496 0.128992 0.0699563
162 1 0.797882 0.0849239 0.0811129
271 1 0.888767 0.129857 0.0495567
127 1 0.034748 0.24955 0.0364766
374 1 0.0855336 0.24974 0.00363963
359 1 0.324283 0.191945 0.0468075
451 1 0.406038 0.207372 0.0691568
413 1 0.450615 0.174963 0.0769505
77 1 0.577821 0.185363 0.0542924
68 1 0.76317 0.18465 0.0087178
16 1 0.936991 0.324825 0.0711847
422 1 0.129456 0.346489 0.0633262
52 1 0.493037 0.362069 0.0452708
109 1 0.314942 0.484145 0.00368797
2 1 0.953052 0.48527 0.0147537
177 1 0.236871 0.558248 0.0621899
457 1 0.319553 0.506704 0.012837
448 1 0.338021 0.631867 0.0132134
225 1 0.826055 0.657978 0.0775071
329 1 0.885393 0.594608 0.047078
238 1 0.954759 0.591453 0.0603098
445 1 0.997016 0.634358 0.0340901
114 1 0.982766 0.590778 0.00149967
360 1 0.322935 0.746774 0.018724
290 1 0.302841 0.703933 0.0666474
90 1 0.30662 0.681098 0.0780701
28 1 0.401359 0.678399 0.0810726
227 1 0.635295 0.708504 0.0784898
92 1 0.633762 0.68827 0.0639267
181 1 0.836374 0.715821 0.0476447
301 1 0.84869 0.699467 0.0617408
372 1 0.843041 0.70259 0.0275806
286 1 0.023346 0.801497 0.0562756
91 1 0.0844715 0.821655 0.0417978
512 1 0.105178 0.809689 0.045362
136 1 0.210745 0.81689 0.0274616
7 1 0.316899 0.830587 0.0738001
268 1 0.39043 0.764783 0.0469509
287 1 0.74729 0.792935 0.00572687
3 1 0.00155615 0.890788 0.0284761
51 1 0.0231503 0.840673 0.0164474
267 1 0.0823759 0.897683 0.0460135
306 1 0.313731 0.88223 0.0100512
27 1 0.48785 0.845538 0.0378072
193 1 0.479556 0.848036 0.0144296
407 1 0.891746 0.909614 0.061707
163 1 0.980486 0.904077 0.0335455
436 1 0.591672 0.932386 0.0416319
14 1 0.0338696 0.00108279 0.152441
15 1 0.097584 0.0377301 0.0867311
486 1 0.564037 0.0234552 0.142993
376 1 0.797285 0.0676962 0.0993905
447 1 0.818442 0.0778026 0.0941454
499 1 0.839484 0.0693501 0.0841042
300 1 0.935966 0.0812979 0.166183
428 1 0.441569 0.163563 0.0974582
226 1 0.503826 0.120064 0.130448
195 1 0.639063 0.150848 0.127039
503 1 0.542484 0.226671 0.108273
98 1 0.785103 0.172787 0.144852
333 1 0.0329077 0.32485 0.0902531
124 1 0.745848 0.253865 0.114972
346 1 0.825437 0.307079 0.0874695
342 1 0.784917 0.26842 0.113618
361 1 0.94596 0.31523 0.136364
282 1 0.939544 0.320905 0.159665
330 1 0.921668 0.294061 0.135527
414 1 0.0907358 0.376275 0.129295
173 1 0.132442 0.472846 0.11638
373 1 0.334404 0.498817 0.104021
299 1 0.960919 0.459853 0.108011
88 1 0.24611 0.572321 0.153608
479 1 0.237882 0.546931 0.0834289
375 1 0.285031 0.513172 0.123452
466 1 0.347632 0.518851 0.112087
183 1 0.595572 0.527859 0.152558
82 1 0.726917 0.548088 0.0884412
405 1 0.261234 0.591698 0.14928
319 1 0.717961 0.605033 0.154804
108 1 0.852962 0.605344 0.164458
55 1 0.917054 0.655486 0.108894
312 1 0.996496 0.60421 0.0952922
272 1 0.948763 0.657336 0.135275
410 1 0.978416 0.620751 0.0904729
258 1 0.0698404 0.730526 0.15795
270 1 0.474525 0.667672 0.0871125
314 1 0.604655 0.746166 0.127181
419 1 0.835123 0.7439 0.0999143
12 1 0.253818 0.824747 0.165458
23 1 0.530149 0.771461 0.10247
240 1 0.584508 0.759825 0.120954
437 1 0.851435 0.793559 0.152699
199 1 0.0547297 0.9015 0.158672
357 1 0.408899 0.846047 0.0967742
341 1 0.473903 0.962087 0.121904
94 1 0.741175 0.923961 0.15142
147 1 0.668341 0.0399016 0.239857
154 1 0.249675 0.0942962 0.244033
180 1 0.4237 0.160839 0.212775
498 1 0.769132 0.0904333 0.246089
196 1 0.607462 0.229443 0.19075
257 1 0.0550993 0.299704 0.19053
156 1 0.0728316 0.283768 0.197945
395 1 0.907878 0.274166 0.221656
501 1 0.982368 0.389758 0.242051
387 1 0.433346 0.508482 0.183147
126 1 0.707813 0.572959 0.244657
434 1 0.00693555 0.606777 0.169465
348 1 0.298456 0.609256 0.218233
57 1 0.343816 0.593083 0.248194
200 1 0.584826 0.631105 0.168736
354 1 0.633436 0.631642 0.207287
347 1 0.705648 0.596714 0.237406
476 1 0.786329 0.613999 0.227901
239 1 0.0428997 0.69387 0.244918
65 1 0.311703 0.701638 0.207086
242 1 0.36871 0.717658 0.198543
441 1 0.499408 0.719855 0.173479
284 1 0.860924 0.71646 0.208978
230 1 0.512012 0.78726 0.181207
182 1 0.626268 0.757776 0.181333
158 1 0.630584 0.817178 0.169193
1 1 0.761338 0.761791 0.20944
138 1 0.298768 0.844926 0.169394
178 1 0.531899 0.927319 0.247371
400 1 0.0645464 0.0472026 0.282095
233 1 0.19922 0.0367861 0.250141
500 1 0.214125 0.0511954 0.263173
216 1 0.277371 0.0672936 0.330985
39 1 0.415813 0.000517452 0.265457
351 1 0.464481 0.0599153 0.32325
194 1 0.525336 0.0533401 0.25937
355 1 0.728339 0.040892 0.316842
203 1 0.781615 0.0291767 0.304509
401 1 0.929105 0.0593234 0.2856
443 1 0.128293 0.133955 0.299164
76 1 0.124271 0.119613 0.279112
72 1 0.491968 0.152812 0.253655
304 1 0.419521 0.14005 0.278001
377 1 0.654652 0.102066 0.255689
315 1 0.660636 0.155111 0.322656
56 1 0.472448 0.200862 0.294637
244 1 0.712539 0.176577 0.328984
222 1 0.905708 0.16765 0.290371
62 1 0.485575 0.273286 0.294093
325 1 0.606452 0.30922 0.253943
4 1 0.405866 0.416592 0.267706
35 1 0.576762 0.354815 0.276057
141 1 0.539782 0.34182 0.319665
144 1 0.560182 0.352802 0.319859
59 1 0.747296 0.396871 0.301551
25 1 0.868988 0.374074 0.329275
508 1 0.445779 0.494722 0.309452
128 1 0.537834 0.425463 0.256384
291 1 0.517382 0.437279 0.326619
111 1 0.955047 0.446997 0.303399
152 1 0.511711 0.515101 0.327313
404 1 0.751313 0.572975 0.30825
34 1 0.880801 0.552714 0.287751
117 1 0.0249767 0.691816 0.262137
367 1 0.341606 0.71159 0.295052
151 1 0.548262 0.770643 0.290565
363 1 0.623326 0.809791 0.278024
293 1 0.687157 0.781499 0.317158
399 1 0.209271 0.888522 0.269068
460 1 0.488283 0.842661 0.278918
454 1 0.636723 0.90836 0.276626
243 1 0.676773 0.860013 0.325779
210 1 0.833482 0.915897 0.259942
285 1 0.401698 0.949489 0.291083
213 1 0.649239 0.92908 0.278889
212 1 0.718672 0.946662 0.329794
446 1 0.0426209 0.0350765 0.407748
487 1 0.428771 0.00455125 0.405645
262 1 0.571874 0.0216938 0.403783
279 1 0.749716 0.0722814 0.346037
283 1 0.751935 0.0520034 0.360446
308 1 0.949032 0.0309448 0.407371
484 1 0.149531 0.160146 0.36555
22 1 0.335573 0.138576 0.348764
450 1 0.0197341 0.181768 0.404203
134 1 0.00973561 0.175264 0.336753
252 1 0.557508 0.186923 0.415426
317 1 0.609787 0.180302 0.372171
145 1 0.908112 0.244638 0.38152
101 1 0.92245 0.24394 0.401564
78 1 0.0590069 0.313342 0.354782
336 1 0.705579 0.311239 0.369968
467 1 0.886509 0.25586 0.385708
265 1 0.186873 0.388505 0.400454
471 1 0.533424 0.398774 0.355439
280 1 0.609124 0.348692 0.405216
439 1 0.889359 0.347707 0.41232
246 1 0.975239 0.344903 0.35516
116 1 0.282499 0.441032 0.360712
295 1 0.274084 0.470019 0.358183
26 1 0.493104 0.486016 0.343291
121 1 0.420257 0.426687 0.377373
378 1 0.452442 0.457894 0.369302
362 1 0.467596 0.428704 0.411096
95 1 0.441173 0.440133 0.415586
188 1 0.035832 0.603207 0.369087
435 1 0.0642359 0.655992 0.407275
507 1 0.293192 0.639286 0.384562
331 1 0.426309 0.663035 0.395153
102 1 0.888259 0.591194 0.390035
481 1 0.0809608 0.68 0.376243
205 1 0.200381 0.679839 0.405238
281 1 0.425983 0.668069 0.334787
66 1 0.427005 0.680506 0.377337
388 1 0.451864 0.681083 0.376619
490 1 0.549993 0.727969 0.3577
148 1 0.22405 0.819319 0.376319
207 1 0.857951 0.808143 0.401361
29 1 0.751361 0.871054 0.403765
168 1 0.909597 0.844133 0.371682
131 1 0.0169415 0.92934 0.405993
463 1 0.931782 0.968799 0.347744
379 1 0.746826 0.0669465 0.428428
273 1 0.782237 0.0456182 0.433035
80 1 0.763744 0.0430834 0.449359
433 1 0.881257 0.0470473 0.47557
41 1 0.881536 0.0254043 0.463231
170 1 0.856567 0.0263357 0.464063
209 1 0.509153 0.137337 0.467055
427 1 0.589507 0.146891 0.4405
311 1 0.903644 0.125431 0.499997
125 1 0.0968505 0.221696 0.481066
113 1 0.146009 0.189642 0.420161
302 1 0.226078 0.236066 0.438153
130 1 0.206574 0.245919 0.425486
465 1 0.343637 0.247759 0.459404
313 1 0.491547 0.177541 0.433825
10 1 0.536696 0.195211 0.426971
217 1 0.949672 0.204138 0.477811
38 1 0.117192 0.331709 0.452289
382 1 0.21596 0.332577 0.482757
245 1 0.250611 0.288424 0.435103
6 1 0.73646 0.304315 0.42367
83 1 0.995655 0.317609 0.429819
64 1 0.55239 0.359972 0.487812
140 1 0.593942 0.396257 0.436394
292 1 0.879899 0.396399 0.434207
46 1 0.973724 0.411647 0.462611
37 1 0.0708621 0.476574 0.428512
423 1 0.583262 0.488803 0.436256
137 1 0.378172 0.562617 0.465584
150 1 0.456639 0.568951 0.476024
255 1 0.932285 0.537788 0.481907
350 1 0.999881 0.574198 0.471355
390 1 0.45946 0.72191 0.447947
384 1 0.0828312 0.819295 0.491109
394 1 0.296327 0.820788 0.495584
198 1 0.439202 0.816271 0.457899
63 1 0.520468 0.792959 0.441968
381 1 0.647157 0.801792 0.448642
204 1 0.668866 0.805463 0.459334
322 1 0.339332 0.888133 0.479077
215 1 0.439992 0.908137 0.498263
254 1 0.661773 0.880144 0.471886
185 1 0.731326 0.867142 0.418138
155 1 0.19581 0.922548 0.476434
370 1 0.461591 0.964579 0.420296
332 1 0.259227 0.0730662 0.555096
24 1 0.283915 0.0679785 0.554584
81 1 0.305918 0.0477646 0.564519
165 1 0.520741 0.0965935 0.582573
260 1 0.00715939 0.184156 0.522976
122 1 0.015575 0.216157 0.544519
472 1 0.232575 0.189687 0.538415
21 1 0.4046 0.168305 0.564996
415 1 0.626598 0.212886 0.510269
442 1 0.292376 0.28849 0.563189
491 1 0.576033 0.270224 0.554309
5 1 0.250153 0.358726 0.515909
174 1 0.266902 0.35357 0.531828
464 1 0.563323 0.370231 0.52578
353 1 0.294152 0.495295 0.553121
469 1 0.123288 0.557798 0.538153
323 1 0.455814 0.582159 0.530155
17 1 0.670799 0.573008 0.542518
13 1 0.939562 0.511411 0.569198
393 1 0.0278994 0.593201 0.522036
133 1 0.54383 0.660108 0.529975
250 1 0.204113 0.737686 0.574534
310 1 0.538108 0.72733 0.542175
396 1 0.649154 0.702942 0.547233
488 1 0.761175 0.689864 0.568489
179 1 0.152043 0.826648 0.574099
294 1 0.184636 0.79677 0.527224
328 1 0.201318 0.790919 0.545252
483 1 0.827315 0.830211 0.51622
164 1 0.638764 0.904178 0.538126
189 1 0.74231 0.864729 0.576111
42 1 0.422821 0.973175 0.562584
143 1 0.442931 0.947477 0.546788
89 1 0.505802 0.974042 0.551417
263 1 0.908246 0.981108 0.510737
110 1 0.924987 0.0630369 0.640778
192 1 0.12433 0.159113 0.661056
251 1 0.613907 0.124835 0.59467
223 1 0.864378 0.120836 0.654064
453 1 0.165736 0.183568 0.613077
274 1 0.287391 0.170826 0.631645
31 1 0.55328 0.200376 0.603162
340 1 0.82385 0.245225 0.594391
326 1 0.0944951 0.297344 0.599237
264 1 0.697188 0.32415 0.646981
278 1 0.99688 0.333307 0.623877
344 1 0.0824934 0.367313 0.583986
406 1 0.489143 0.382196 0.661514
425 1 0.530767 0.391452 0.621211
493 1 0.616562 0.378899 0.634179
277 1 0.739975 0.370459 0.614303
356 1 0.762826 0.370328 0.617902
84 1 0.927265 0.363939 0.586596
298 1 0.134407 0.476663 0.61141
309 1 0.182224 0.476826 0.607706
40 1 0.44189 0.438205 0.598922
411 1 0.508037 0.470489 0.648833
510 1 0.751356 0.416802 0.616301
412 1 0.991135 0.436838 0.611308
103 1 0.967859 0.440943 0.615505
431 1 0.0545567 0.537959 0.634396
383 1 0.687866 0.558568 0.612212
20 1 0.760354 0.535654 0.635097
364 1 0.0927977 0.60879 0.644767
221 1 0.848469 0.589173 0.628289
220 1 0.975759 0.638187 0.653224
32 1 0.146847 0.677704 0.599782
157 1 0.129184 0.689081 0.609628
214 1 0.211043 0.687291 0.631454
219 1 0.509096 0.715801 0.607755
132 1 0.714297 0.683046 0.585461
256 1 0.753119 0.690094 0.617867
288 1 0.877463 0.724755 0.609267
119 1 0.0247428 0.816722 0.644273
67 1 0.913553 0.829464 0.649565
492 1 0.0823347 0.910611 0.636626
159 1 0.588568 0.856602 0.613608
397 1 0.758039 0.913965 0.601899
167 1 0.0315613 0.92458 0.621474
269 1 0.548961 0.988242 0.657178
339 1 0.803849 0.94157 0.654113
275 1 0.961957 0.967252 0.601781
93 1 0.250889 0.0202268 0.726257
231 1 0.542015 0.0352508 0.713764
235 1 0.858595 0.0650261 0.707404
462 1 0.942658 0.0373378 0.747089
86 1 0.293945 0.143999 0.711793
172 1 0.787179 0.119442 0.68264
408 1 0.25778 0.180782 0.74107
49 1 0.464371 0.173294 0.735525
73 1 0.59036 0.169176 0.667839
190 1 0.727779 0.211328 0.713131
276 1 0.15035 0.294174 0.706383
495 1 0.400434 0.25542 0.728764
58 1 0.739971 0.311182 0.697739
118 1 0.200918 0.408959 0.686498
70 1 0.230305 0.420907 0.670835
232 1 0.573612 0.478786 0.679178
236 1 0.654083 0.462919 0.728951
338 1 0.890888 0.430288 0.667788
307 1 0.905178 0.462175 0.707688
18 1 0.213154 0.543593 0.721555
201 1 0.742971 0.580808 0.735705
455 1 0.960687 0.567838 0.670838
424 1 0.314214 0.595259 0.72666
352 1 0.400165 0.610348 0.692387
452 1 0.420412 0.596208 0.687197
30 1 0.63489 0.60839 0.730261
386 1 0.811055 0.583776 0.667046
489 1 0.174882 0.683581 0.738668
171 1 0.544873 0.716182 0.683623
337 1 0.669607 0.714717 0.744752
169 1 0.733366 0.827118 0.726578
106 1 0.793929 0.863307 0.719487
366 1 0.109994 0.938572 0.746767
160 1 0.31288 0.956663 0.722722
477 1 0.902816 0.993255 0.716891
54 1 0.8492 0.938124 0.725606
71 1 0.11895 0.0056978 0.81013
417 1 0.358667 0.0430454 0.830371
9 1 0.483077 0.0248665 0.828923
380 1 0.679925 0.032814 0.820551
19 1 0.74084 0.0321557 0.757425
85 1 0.0058486 0.111517 0.77902
266 1 0.17085 0.108091 0.778572
296 1 0.25928 0.167593 0.795108
197 1 0.407455 0.206996 0.757219
482 1 0.635043 0.233975 0.791811
44 1 0.933122 0.197427 0.809212
421 1 0.0505244 0.280433 0.796236
69 1 0.048097 0.301765 0.78223
426 1 0.0359325 0.309817 0.762173
48 1 0.049206 0.326909 0.776024
211 1 0.745127 0.301278 0.781573
444 1 0.876863 0.296434 0.806495
392 1 0.86456 0.302915 0.827219
470 1 0.976112 0.301445 0.818482
61 1 0.244254 0.375982 0.828803
461 1 0.322624 0.391118 0.798368
8 1 0.906983 0.356472 0.797879
115 1 0.189381 0.440255 0.792158
241 1 0.396713 0.476303 0.790777
186 1 0.567448 0.431231 0.785476
320 1 0.843083 0.474645 0.766699
289 1 0.401605 0.507889 0.750537
468 1 0.386049 0.501712 0.823952
146 1 0.342753 0.560937 0.782114
53 1 0.395249 0.517108 0.79406
440 1 0.627984 0.531672 0.769831
506 1 0.889173 0.573924 0.830237
166 1 0.911701 0.52424 0.75826
391 1 0.511398 0.653368 0.803272
389 1 0.637196 0.650238 0.759972
175 1 0.764056 0.66037 0.773898
43 1 0.979966 0.650276 0.811387
504 1 3.63254e-05 0.722198 0.790382
509 1 0.399074 0.723348 0.773331
176 1 0.723994 0.691039 0.806905
318 1 0.961234 0.708882 0.76347
104 1 0.319002 0.790136 0.765397
249 1 0.403271 0.796708 0.818705
247 1 0.432107 0.798558 0.776821
112 1 0.577507 0.758754 0.755011
438 1 0.711534 0.772235 0.78823
475 1 0.918098 0.795933 0.762577
305 1 0.311068 0.850136 0.806167
107 1 0.462104 0.879727 0.797825
96 1 0.0267177 0.927465 0.827698
79 1 0.521713 0.949467 0.769775
327 1 0.511995 0.940204 0.79123
228 1 0.579798 0.9857 0.750298
123 1 0.618132 0.0116517 0.907062
253 1 0.716349 0.0727406 0.891472
99 1 0.837894 0.0446162 0.847093
237 1 0.132649 0.128357 0.84359
459 1 0.52266 0.0947384 0.8888
218 1 0.636145 0.134039 0.902346
139 1 0.760728 0.114698 0.906005
75 1 0.474974 0.195375 0.846653
248 1 0.844688 0.213996 0.857786
511 1 0.0440377 0.32785 0.904677
449 1 0.309088 0.286989 0.875674
349 1 0.69177 0.259128 0.833772
335 1 0.793531 0.271965 0.898034
416 1 0.00773481 0.389656 0.889824
259 1 0.03332 0.400766 0.867219
368 1 0.125232 0.341053 0.898527
496 1 0.0919557 0.35734 0.879448
403 1 0.185622 0.431252 0.873982
74 1 0.287898 0.424216 0.889199
161 1 0.532076 0.488958 0.89305
297 1 0.583834 0.517462 0.906966
485 1 0.746111 0.543799 0.880327
430 1 0.466113 0.811259 0.839069
429 1 0.79044 0.816751 0.864215
33 1 0.872226 0.768629 0.858321
47 1 0.668308 0.85248 0.886217
358 1 0.826111 0.889176 0.907813
409 1 0.849523 0.89363 0.900259
365 1 0.881243 0.873064 0.8374
473 1 0.863501 0.907142 0.915986
345 1 0.106922 0.931465 0.901485
11 1 0.261118 0.947601 0.834009
45 1 0.393111 0.948406 0.888266
480 1 0.365208 0.930353 0.838318
224 1 0.228403 0.0722109 0.9941
36 1 0.277625 0.144189 0.955624
135 1 0.278099 0.106519 0.951223
343 1 0.771883 0.150489 0.998362
105 1 0.793981 0.155195 0.987241
229 1 0.78611 0.131731 0.991671
184 1 0.0628757 0.189539 0.958725
502 1 0.367138 0.233329 0.950524
494 1 0.0622511 0.289258 0.990148
149 1 0.0288521 0.275547 0.990054
478 1 0.198836 0.32128 0.968444
385 1 0.773189 0.300095 0.943146
87 1 0.27996 0.358756 0.942271
97 1 0.635688 0.351372 0.956082
497 1 0.837509 0.339176 0.926205
371 1 0.171637 0.437299 0.999984
129 1 0.167876 0.438523 0.976192
303 1 0.321355 0.468931 0.984931
418 1 0.521654 0.460711 0.922829
420 1 0.585473 0.440417 0.98467
398 1 0.599668 0.462037 0.960329
153 1 0.598356 0.422545 0.968553
50 1 0.768213 0.489605 0.959279
474 1 0.536302 0.52988 0.950661
187 1 0.716141 0.520537 0.945369
206 1 0.818401 0.533246 0.965533
191 1 0.3583 0.596081 0.927968
369 1 0.71941 0.585961 0.97023
402 1 0.926595 0.586894 0.930432
334 1 0.2646 0.745078 0.932492
505 1 0.526067 0.72653 0.982304
456 1 0.848557 0.71753 0.961181
202 1 0.842251 0.767309 0.951037
120 1 0.992749 0.79161 0.966141
432 1 0.0653771 0.91158 0.969196
142 1 0.0907354 0.852607 0.971536
100 1 0.305747 0.870732 0.938159
458 1 0.454676 0.971948 0.957263
321 1 0.714577 0.952299 0.922967
208 1 0.98497 0.943423 0.92324
ITEM: TIMESTEP
10000
ITEM: NUMBER OF ATOMS
512
ITEM: BOX BOUNDS pp pp pp
0.0000000000000000e+00 4.0000000000000000e+01
0.0000000000000000e+00 4.0000000000000000e+01
0.0000000000000000e+00 4.0000000000000000e+01
ITEM: ATOMS id type xs ys zs
280 1 0.103704 0.00397057 0.0415009
435 1 0.872717 0.0431967 0.0143095
41 1 0.0366655 0.129785 0.0269955
489 1 0.429468 0.0946289 0.0504354
109 1 0.878549 0.248091 0.0420202
168 1 0.493486 0.288229 0.0245586
237 1 0.726297 0.332924 0.0777707
274 1 0.894284 0.33076 0.0230218
460 1 0.925874 0.276821 0.0712989
490 1 0.946514 0.265024 0.0660417
101 1 0.481241 0.353434 0.0409544
172 1 0.721025 0.377908 0.00983422
488 1 0.0576129 0.498136 0.0462826
131 1 0.732301 0.468382 0.0453464
71 1 0.750345 0.483999 0.0378302
432 1 0.0717572 0.549609 0.0254607
182 1 0.0871024 0.536118 0.013224
427 1 0.162003 0.532072 0.0461546
184 1 0.388826 0.515459 0.0225615
351 1 0.34875 0.507968 0.0430781
249 1 0.357056 0.545437 0.00118607
464 1 0.43057 0.55891 0.0105228
127 1 0.528814 0.539945 0.0649054
474 1 0.744292 0.565259 0.0356688
136 1 0.701765 0.570254 0.0201706
103 1 0.7511 0.553691 0.0128237
437 1 0.981121 0.542046 0.0831974
357 1 0.273394 0.64753 0.0447605
175 1 0.605251 0.589328 0.0691995
18 1 0.72688 0.65904 0.0177715
448 1 0.746237 0.643768 0.0113087
452 1 0.0706003 0.693965 0.0269161
24 1 0.194289 0.736108 0.05935
227 1 0.220823 0.689075 0.0159072
191 1 0.451096 0.746184 0.0560793
271 1 0.502402 0.726566 0.021867
28 1 0.885672 0.717605 0.0175563
239 1 0.861533 0.72726 0.0823044
338 1 0.891787 0.714267 0.0465171
266 1 0.119513 0.795416 0.0741294
20 1 0.597276 0.766092 0.00356618
167 1 0.171132 0.881779 0.0815641
264 1 0.76656 0.854526 0.00582298
504 1 0.262586 0.980586 0.0293729
366 1 0.614719 0.971366 0.0807218
200 1 0.652042 0.929927 0.0090681
433 1 0.144871 0.0563487 0.133537
256 1 0.920941 0.00401717 0.0990969
106 1 0.0992869 0.159234 0.105383
174 1 0.12413 0.212546 0.15803
439 1 0.0892514 0.176952 0.138435
270 1 0.610864 0.213484 0.141705
94 1 0.674029 0.213305 0.0905158
132 1 0.784489 0.171862 0.145948
294 1 0.994583 0.246702 0.161687
68 1 0.97175 0.227511 0.143349
77 1 0.110973 0.305452 0.12435
69 1 0.255399 0.277015 0.127024
326 1 0.380424 0.271923 0.12346
220 1 0.4043 0.264282 0.109021
330 1 0.210863 0.386679 0.0988616
344 1 0.616831 0.400467 0.163636
340 1 0.682841 0.360444 0.16432
385 1 0.736034 0.334798 0.150927
122 1 0.416971 0.619193 0.160188
374 1 0.335449 0.718747 0.0899881
355 1 0.576922 0.677417 0.149223
328 1 0.914907 0.692646 0.0979949
502 1 0.0391278 0.821007 0.0833505
349 1 0.237328 0.798504 0.151876
181 1 0.982644 0.791604 0.143491
208 1 0.122341 0.846252 0.156522
121 1 0.496108 0.836576 0.151393
289 1 0.54116 0.886706 0.131652
327 1 0.776549 0.907695 0.136961
421 1 0.953505 0.846852 0.103184
235 1 0.330846 0.949979 0.0909385
416 1 0.0985165 0.106835 0.222471
112 1 0.235732 0.116621 0.180762
219 1 0.204758 0.138479 0.204034
316 1 0.627665 0.0852646 0.171438
123 1 0.898635 0.138007 0.229407
375 1 0.937315 0.155022 0.231125
253 1 0.4415 0.183184 0.179522
76 1 0.625908 0.238915 0.222674
303 1 0.603856 0.227619 0.21721
125 1 0.805727 0.201029 0.176312
59 1 0.0699159 0.25052 0.212832
372 1 0.10568 0.2519 0.225308
292 1 0.0939481 0.273424 0.225836
314 1 0.218495 0.263047 0.167365
160 1 0.553034 0.255126 0.202275
279 1 0.90719 0.279444 0.238181
251 1 0.386218 0.410673 0.245344
299 1 0.695583 0.345929 0.19829
389 1 0.760057 0.381057 0.212945
53 1 0.325304 0.482859 0.18907
455 1 0.782536 0.420648 0.192999
135 1 0.934681 0.451898 0.200136
296 1 0.187639 0.52851 0.219784
272 1 0.645398 0.557627 0.209009
325 1 0.770485 0.547481 0.206008
48 1 0.146678 0.600339 0.176778
405 1 0.389776 0.592708 0.182589
467 1 0.916489 0.621055 0.229744
462 1 0.886119 0.624883 0.24973
380 1 0.457647 0.680088 0.224077
89 1 0.596067 0.705869 0.209055
210 1 0.051598 0.755442 0.169093
453 1 0.505899 0.819673 0.213009
376 1 0.566165 0.797524 0.226692
130 1 0.828216 0.820774 0.246076
27 1 0.145433 0.909887 0.17081
396 1 0.223823 0.886902 0.248404
506 1 0.348929 0.902723 0.207801
248 1 0.480805 0.841064 0.194904
230 1 0.522086 0.845124 0.182453
407 1 0.614962 0.875612 0.226039
218 1 0.87899 0.852454 0.212711
124 1 0.858888 0.905425 0.228748
414 1 0.224315 0.951388 0.240087
387 1 0.0712456 0.0702853 0.329015
454 1 0.279315 0.0808012 0.287852
87 1 0.524614 0.0676798 0.256482
194 1 0.611355 0.0641876 0.284093
480 1 0.174719 0.162556 0.316139
98 1 0.904559 0.0934822 0.304921
423 1 0.947944 0.147125 0.251298
386 1 0.00396578 0.227782 0.328228
367 1 0.0938853 0.197599 0.256195
449 1 0.116043 0.218594 0.288134
434 1 0.18051 0.18305 0.253752
447 1 0.387816 0.195427 0.269782
247 1 0.807712 0.291141 0.265132
373 1 0.387675 0.389464 0.273253
29 1 0.453808 0.405341 0.265257
267 1 0.471254 0.407117 0.306741
157 1 0.510462 0.377638 0.311052
487 1 0.678527 0.348171 0.286285
234 1 0.00878632 0.48196 0.306712
61 1 0.430046 0.460504 0.322181
257 1 0.48511 0.453903 0.284637
141 1 0.809039 0.432641 0.266472
56 1 0.884669 0.478872 0.324592
156 1 0.963305 0.446356 0.293786
345 1 0.186902 0.502682 0.264471
221 1 0.757001 0.563969 0.282202
226 1 0.673365 0.664501 0.287308
444 1 0.84194 0.59515 0.268
263 1 0.908635 0.60551 0.309621
485 1 0.971265 0.685472 0.312279
420 1 0.555245 0.764263 0.266943
215 1 0.694502 0.799976 0.297315
399 1 0.700655 0.815549 0.269423
224 1 0.289527 0.8725 0.300122
97 1 0.506687 0.849537 0.312611
240 1 0.691007 0.844575 0.264367
499 1 0.712857 0.851291 0.297641
58 1 0.70086 0.890049 0.29084
343 1 0.69541 0.867496 0.302489
269 1 0.703745 0.868868 0.281486
508 1 0.0830087 0.920503 0.269264
203 1 0.244585 0.965321 0.323518
484 1 0.303804 0.924023 0.301734
378 1 0.434201 0.995453 0.320524
86 1 0.616394 0.994232 0.294378
356 1 0.769775 0.923292 0.331036
6 1 0.954073 0.986941 0.331078
40 1 0.0469783 0.0305189 0.361664
62 1 0.181625 0.0186626 0.353503
117 1 0.31817 0.0807386 0.338208
91 1 0.407368 0.0646785 0.39922
446 1 0.566646 0.0243668 0.357206
233 1 0.2588 0.110634 0.365366
509 1 0.915459 0.118122 0.334424
129 1 0.0391053 0.20067 0.334578
252 1 0.164207 0.242772 0.337065
140 1 0.592776 0.191103 0.365189
336 1 0.813346 0.249291 0.335098
260 1 0.936439 0.210066 0.405268
415 1 0.0312676 0.256654 0.398142
238 1 0.124226 0.291749 0.383538
503 1 0.201566 0.278987 0.413393
395 1 0.221403 0.281579 0.357622
255 1 0.963144 0.264631 0.357833
337 1 0.991343 0.276616 0.358278
458 1 0.320384 0.353885 0.390274
38 1 0.472958 0.415192 0.343185
278 1 0.494606 0.387512 0.373895
352 1 0.828133 0.384683 0.412679
353 1 0.109598 0.515253 0.387955
82 1 0.167538 0.530723 0.356924
486 1 0.786831 0.50076 0.351878
189 1 0.889099 0.508086 0.396463
81 1 0.0181851 0.619631 0.402278
291 1 0.0177887 0.659251 0.383934
63 1 0.275235 0.609699 0.334943
96 1 0.55251 0.596225 0.335983
151 1 0.66229 0.655188 0.389725
418 1 0.881651 0.626756 0.365054
143 1 0.283429 0.755429 0.398369
254 1 0.4566 0.815096 0.384571
179 1 0.549041 0.812242 0.398001
313 1 0.763554 0.819786 0.39422
498 1 0.878217 0.822134 0.41498
398 1 0.063606 0.873846 0.339179
26 1 0.853611 0.873952 0.415733
133 1 0.224193 0.993399 0.338745
22 1 0.218908 0.933027 0.401546
186 1 0.989079 0.952288 0.410216
347 1 0.31368 0.0216722 0.458388
501 1 0.38952 0.0962191 0.471551
512 1 0.51548 0.138045 0.43498
258 1 0.272654 0.211603 0.418897
259 1 0.400465 0.172159 0.425019
64 1 0.479221 0.183395 0.463032
115 1 0.0217457 0.31094 0.439595
84 1 0.176324 0.298357 0.442068
286 1 0.364622 0.307542 0.438054
417 1 0.719113 0.291669 0.498899
228 1 0.819269 0.259137 0.473602
214 1 0.804544 0.274169 0.489045
463 1 0.347129 0.395876 0.475284
102 1 0.6569 0.360132 0.444522
13 1 0.628583 0.36969 0.45034
229 1 0.812936 0.399578 0.467647
213 1 0.0712555 0.423113 0.425845
166 1 0.0456983 0.499012 0.420057
116 1 0.258197 0.479281 0.499138
190 1 0.603611 0.488852 0.484962
495 1 0.891697 0.498005 0.425249
282 1 0.304188 0.567866 0.446162
107 1 0.300784 0.561835 0.471137
365 1 0.527585 0.520263 0.43939
273 1 0.595774 0.504016 0.433264
285 1 0.86843 0.532149 0.43284
310 1 0.016549 0.628487 0.476141
185 1 0.567263 0.698976 0.426802
438 1 0.178975 0.776747 0.487934
359 1 0.411377 0.75714 0.438799
222 1 0.556057 0.826359 0.420574
482 1 0.585498 0.819578 0.47296
173 1 0.43845 0.890732 0.482082
250 1 0.531586 0.838582 0.425334
364 1 0.55464 0.92097 0.46965
2 1 0.979771 0.976976 0.442304
404 1 0.930442 0.929422 0.445371
52 1 0.545098 0.140756 0.504493
277 1 0.355075 0.18767 0.520244
209 1 0.507262 0.208324 0.575442
33 1 0.508855 0.241127 0.518477
46 1 0.742924 0.255646 0.560424
155 1 0.816843 0.25108 0.501714
402 1 0.0153571 0.336221 0.549946
494 1 0.882475 0.348518 0.581298
332 1 0.954229 0.348446 0.536024
450 1 0.920144 0.376877 0.533709
384 1 0.13574 0.470588 0.509897
397 1 0.153964 0.438685 0.539805
428 1 0.235319 0.473201 0.506344
295 1 0.264815 0.469929 0.542676
75 1 0.278422 0.439988 0.554068
196 1 0.585003 0.468206 0.523621
223 1 0.135081 0.533113 0.537428
45 1 0.4833 0.523119 0.513404
195 1 0.549267 0.554752 0.504346
138 1 0.151706 0.587382 0.519661
72 1 0.243908 0.616738 0.583003
149 1 0.244669 0.586719 0.515149
51 1 0.277871 0.605578 0.582669
134 1 0.319132 0.602917 0.556032
391 1 0.296233 0.583952 0.581744
242 1 0.354522 0.631216 0.551697
305 1 0.0544699 0.791754 0.579882
431 1 0.0766256 0.781139 0.580348
321 1 0.0582317 0.779204 0.556732
440 1 0.271147 0.807864 0.531722
78 1 0.689892 0.765625 0.516497
55 1 0.962983 0.75358 0.552213
50 1 0.0580204 0.906718 0.506491
304 1 0.170387 0.905292 0.573241
232 1 0.470266 0.910121 0.502664
276 1 0.600453 0.84253 0.510515
83 1 0.705807 0.870037 0.550705
451 1 0.822148 0.911543 0.578023
31 1 0.913363 0.910206 0.564406
379 1 0.0154855 0.922575 0.567163
275 1 0.133564 0.991726 0.574388
73 1 0.254349 0.984219 0.521969
382 1 0.712692 0.938621 0.56244
170 1 0.986761 0.932612 0.554848
188 1 0.671462 0.0825711 0.62401
323 1 0.975553 0.0236714 0.644535
158 1 0.964356 0.00456356 0.605624
119 1 0.98927 0.0356673 0.619444
146 1 0.0552937 0.119768 0.650604
1 1 0.132602 0.0888372 0.609669
312 1 0.179186 0.0836795 0.608307
183 1 0.315772 0.144619 0.648891
137 1 0.373397 0.159074 0.595551
329 1 0.662437 0.0850428 0.659702
187 1 0.883344 0.114092 0.636767
206 1 0.855698 0.149701 0.656052
42 1 0.413961 0.232522 0.631212
8 1 0.707298 0.247414 0.631369
205 1 0.236577 0.329679 0.595591
510 1 0.277871 0.283834 0.585449
244 1 0.784386 0.278695 0.654755
445 1 0.963595 0.272173 0.659604
246 1 0.473524 0.414603 0.648633
105 1 0.615552 0.367825 0.658483
297 1 0.674376 0.371956 0.58764
425 1 0.767302 0.343474 0.594924
306 1 0.433134 0.489836 0.654472
422 1 0.644878 0.445609 0.603777
318 1 0.664213 0.461498 0.612906
301 1 0.788599 0.436525 0.62099
74 1 0.943105 0.42322 0.596993
293 1 0.388637 0.561241 0.604147
201 1 0.343303 0.537183 0.606496
456 1 0.560047 0.579875 0.639455
245 1 0.777476 0.520305 0.638876
281 1 0.883501 0.504841 0.592304
475 1 0.989274 0.510641 0.649797
319 1 0.275909 0.630586 0.624962
466 1 0.463736 0.633328 0.599732
153 1 0.743253 0.592496 0.648073
111 1 0.244382 0.748681 0.64345
408 1 0.607643 0.700334 0.663586
465 1 0.681205 0.732358 0.626567
34 1 0.821988 0.672115 0.630976
331 1 0.967707 0.682664 0.624297
199 1 0.139661 0.782571 0.598995
211 1 0.2226 0.789958 0.622267
477 1 0.263052 0.777457 0.619729
309 1 0.16224 0.88807 0.588274
410 1 0.346907 0.868073 0.609291
342 1 0.66274 0.838189 0.607254
496 1 0.698049 0.872711 0.621057
85 1 0.113321 0.996304 0.639575
476 1 0.426217 0.923279 0.625055
268 1 0.659389 0.957665 0.621719
335 1 0.951982 0.990526 0.589792
147 1 0.918986 0.929141 0.659837
110 1 0.138904 0.0360172 0.732938
333 1 0.571998 0.0219273 0.734704
225 1 0.819206 0.0530643 0.719751
468 1 0.906333 0.0084207 0.706241
429 1 0.0958909 0.0947257 0.672628
43 1 0.613717 0.096484 0.711366
144 1 0.968414 0.126498 0.704712
44 1 0.230409 0.248469 0.705096
470 1 0.970605 0.17133 0.692246
339 1 0.474563 0.281931 0.727638
411 1 0.448287 0.318543 0.744024
400 1 0.179029 0.359204 0.746804
390 1 0.525409 0.400646 0.715009
381 1 0.322315 0.49716 0.74619
472 1 0.316024 0.484194 0.667368
65 1 0.342742 0.481129 0.745136
16 1 0.584688 0.447098 0.74809
150 1 0.594359 0.576222 0.706955
178 1 0.973093 0.524732 0.674127
368 1 0.401625 0.652591 0.731061
207 1 0.444266 0.642977 0.726032
142 1 0.0571581 0.719729 0.741621
108 1 0.720255 0.716511 0.667779
90 1 0.898633 0.724654 0.710313
511 1 0.840266 0.696361 0.703027
469 1 0.569192 0.798446 0.744868
322 1 0.697172 0.773899 0.726848
430 1 0.944087 0.779521 0.714227
32 1 0.187308 0.847066 0.706603
419 1 0.833143 0.87359 0.687812
15 1 0.0305869 0.969207 0.672049
23 1 0.789774 0.941442 0.668009
60 1 0.802971 0.939026 0.736575
152 1 0.13449 0.0541438 0.825513
424 1 0.0884076 0.0787653 0.825317
403 1 0.239691 0.0749766 0.817692
100 1 0.866416 0.20229 0.761823
358 1 0.977158 0.195138 0.768655
47 1 0.349794 0.313897 0.832172
35 1 0.432316 0.325668 0.802572
37 1 0.928794 0.325407 0.773411
162 1 0.00159325 0.355522 0.8199