ITEM: TIMESTEP
500000
ITEM: NUMBER OF ATOMS
512
ITEM: BOX BOUNDS pp pp pp
0.0000000000000000e+00 4.0000000000000000e+01
0.0000000000000000e+00 4.0000000000000000e+01
0.0000000000000000e+00 4.0000000000000000e+01
ITEM: ATOMS id type xs ys zs
2 1 0.339352 0.0150253 0.00141435
194 1 0.122991 0.134795 0.0281908
377 1 0.436177 0.131065 0.0338466
48 1 0.806078 0.130972 0.0220841
443 1 0.0556727 0.235389 0.0792536
510 1 0.517466 0.227992 0.00817224
501 1 0.09936 0.317131 0.0297453
492 1 0.439481 0.281364 0.02058
196 1 0.54005 0.285471 0.0686842
68 1 0.772921 0.26252 0.0587418
493 1 0.0832009 0.337424 0.0202462
102 1 0.245327 0.368367 0.0241546
300 1 0.608608 0.3776 0.0285785
310 1 0.670546 0.410374 0.0398157
28 1 0.0891354 0.422073 0.077077
119 1 0.419648 0.488443 0.0143976
227 1 0.530653 0.472809 0.0771397
223 1 0.805277 0.430296 0.0117959
308 1 0.625575 0.517406 0.0720136
473 1 0.0890897 0.59534 0.0386882
486 1 0.55948 0.600787 0.070974
129 1 0.675748 0.604585 0.0312921
311 1 0.797507 0.587513 0.00831823
208 1 0.64468 0.697641 0.0290115
116 1 0.322751 0.778262 0.0821645
197 1 0.482219 0.767356 0.0487973
220 1 0.574228 0.795795 0.0708763
69 1 0.680189 0.760764 0.00685814
401 1 0.693199 0.805239 0.0292692
81 1 0.952017 0.82955 0.0205379
266 1 0.455706 0.86672 0.00042928
279 1 0.724254 0.922605 0.0498809
173 1 0.889673 0.974382 0.0490639
290 1 0.163521 0.0685664 0.0955001
416 1 0.390328 0.0251801 0.0999264
44 1 0.477235 0.0817965 0.0988205
322 1 0.647337 0.0752872 0.124947
431 1 0.862057 0.0347842 0.137019
184 1 0.927105 0.000312983 0.107285
155 1 0.0216117 0.115155 0.124424
491 1 0.394596 0.101136 0.128249
98 1 0.974068 0.152821 0.0886196
325 1 0.584439 0.24306 0.0871909
36 1 0.375729 0.30372 0.163723
71 1 0.410151 0.264945 0.102352
293 1 0.582204 0.325914 0.120452
453 1 0.827673 0.260904 0.125368
64 1 0.339784 0.345059 0.107734
124 1 0.756242 0.3993 0.109151
267 1 0.871999 0.377176 0.124234
368 1 0.977386 0.338918 0.108885
268 1 0.237073 0.421975 0.107837
103 1 0.38264 0.482379 0.107188
38 1 0.525078 0.495446 0.0892793
106 1 0.652444 0.462977 0.130422
100 1 0.623478 0.4355 0.129625
235 1 0.687044 0.462114 0.121549
370 1 0.228977 0.558597 0.0942758
411 1 0.649459 0.570769 0.137276
136 1 0.900663 0.581449 0.161173
417 1 0.844576 0.573103 0.13413
228 1 0.131903 0.585991 0.136484
15 1 0.205399 0.616662 0.157695
215 1 0.701421 0.613471 0.108551
357 1 0.844738 0.593488 0.0877672
93 1 0.167293 0.708587 0.117792
328 1 0.904709 0.749225 0.14605
18 1 0.0793705 0.804911 0.118331
222 1 0.12671 0.823957 0.0918247
341 1 0.472458 0.77311 0.0846188
128 1 0.425093 0.773676 0.123742
461 1 0.648449 0.81587 0.0855099
426 1 0.784357 0.799092 0.151851
249 1 0.881959 0.75513 0.159175
90 1 0.938264 0.75958 0.142178
403 1 0.0253775 0.0474115 0.217506
243 1 0.152629 0.0613289 0.229011
363 1 0.965132 0.0322648 0.179641
230 1 0.0444429 0.117399 0.202002
209 1 0.0928614 0.102526 0.196447
50 1 0.494901 0.0918995 0.208372
86 1 0.65139 0.166631 0.192862
150 1 0.618736 0.198639 0.187639
125 1 0.611802 0.192528 0.227247
251 1 0.818136 0.326788 0.186648
232 1 0.930021 0.326597 0.222939
409 1 0.0741805 0.339693 0.24105
16 1 0.0903143 0.335384 0.222753
458 1 0.475422 0.400642 0.17878
137 1 0.245817 0.485362 0.19411
201 1 0.0675849 0.540194 0.207092
432 1 0.0867961 0.525477 0.202124
326 1 0.183423 0.545357 0.224195
161 1 0.207954 0.523981 0.214927
333 1 0.27621 0.530328 0.220701
79 1 0.609098 0.500389 0.236594
70 1 0.589612 0.553817 0.217474
39 1 0.00965961 0.62139 0.246102
21 1 0.52634 0.617525 0.219261
472 1 0.822433 0.603745 0.208723
133 1 0.160909 0.692752 0.206901
212 1 0.117305 0.700182 0.203778
40 1 0.220738 0.705972 0.222505
195 1 0.875167 0.670098 0.214732
65 1 0.907176 0.677424 0.235619
32 1 0.0277878 0.815336 0.242813
63 1 0.229188 0.821551 0.189028
439 1 0.657426 0.7659 0.21452
210 1 0.846973 0.76717 0.200792
91 1 0.922117 0.796669 0.168803
33 1 0.015955 0.897032 0.17438
19 1 0.0668775 0.902676 0.221401
187 1 0.0909214 0.908911 0.230064
27 1 0.308874 0.870904 0.239548
157 1 0.545025 0.876465 0.235592
296 1 0.630241 0.889242 0.191784
188 1 0.0558095 0.922729 0.207831
153 1 0.519921 0.945391 0.227667
312 1 0.38192 0.0126382 0.281012
205 1 0.611822 0.0383713 0.297901
58 1 0.277629 0.108636 0.287049
189 1 0.511474 0.124372 0.302151
80 1 0.962598 0.212981 0.331537
479 1 0.202104 0.251877 0.314661
92 1 0.496931 0.250285 0.252543
199 1 0.541791 0.273917 0.278637
359 1 0.480539 0.342244 0.317747
347 1 0.677995 0.345029 0.264112
219 1 0.00418934 0.487881 0.298929
292 1 0.514361 0.425948 0.285622
288 1 0.332632 0.512118 0.265515
182 1 0.0190148 0.706413 0.265899
244 1 0.0221655 0.702012 0.292505
318 1 0.132001 0.682554 0.302922
97 1 0.117011 0.82835 0.260328
447 1 0.224054 0.80379 0.315363
373 1 0.771012 0.783248 0.271373
508 1 0.904739 0.823019 0.272165
145 1 0.844782 0.778421 0.329249
237 1 0.454849 0.911446 0.328822
340 1 0.457615 0.94286 0.254757
349 1 0.229703 0.0632296 0.335769
463 1 0.230976 0.0600815 0.367078
484 1 0.255261 0.0595554 0.336767
419 1 0.449829 0.0637356 0.378468
121 1 0.605209 0.0680617 0.367332
404 1 0.858368 0.0616423 0.356249
190 1 0.861916 0.0378159 0.373132
364 1 0.20337 0.184827 0.345752
9 1 0.288046 0.216848 0.416524
512 1 0.935693 0.210435 0.415485
245 1 0.952114 0.186896 0.353399
438 1 0.486568 0.263081 0.37655
242 1 0.485462 0.376136 0.393373
192 1 0.8997 0.36552 0.382903
376 1 0.153253 0.443369 0.381369
163 1 0.445954 0.491726 0.397507
346 1 0.877678 0.495992 0.374477
437 1 0.991928 0.471807 0.365478
422 1 0.527585 0.580616 0.360843
281 1 0.724829 0.536044 0.359017
60 1 0.898145 0.556656 0.380641
275 1 0.804469 0.591454 0.366503
388 1 0.860327 0.644992 0.378185
246 1 0.301138 0.68311 0.347312
323 1 0.295625 0.70433 0.335673
22 1 0.32453 0.686639 0.338126
273 1 0.384596 0.707257 0.407074
271 1 0.666335 0.68118 0.400507
434 1 0.992178 0.684347 0.392127
442 1 0.0504014 0.777253 0.358503
284 1 0.235184 0.770191 0.408321
134 1 0.697357 0.761947 0.348817
211 1 0.650544 0.851864 0.38213
42 1 0.673703 0.90711 0.34842
171 1 0.850006 0.912621 0.415236
107 1 0.260225 0.963598 0.361262
456 1 0.311656 0.982193 0.359404
4 1 0.614018 0.931098 0.337577
489 1 0.296433 0.0067663 0.433655
67 1 0.341472 0.0867223 0.486339
396 1 0.398564 0.15123 0.468344
482 1 0.259673 0.235833 0.458643
440 1 0.802698 0.219472 0.453853
317 1 0.00997241 0.328967 0.477054
131 1 0.0237764 0.28168 0.479528
89 1 0.756118 0.259738 0.469836
306 1 0.995719 0.299464 0.422335
393 1 0.276597 0.404823 0.43132
316 1 0.510534 0.386361 0.441785
109 1 0.666254 0.353688 0.499336
46 1 0.658768 0.410896 0.474927
320 1 0.916064 0.417406 0.498471
441 1 0.0241301 0.619627 0.418724
203 1 0.375347 0.611192 0.451149
62 1 0.471444 0.648922 0.494776
427 1 0.99328 0.63531 0.49514
166 1 0.926148 0.622856 0.466134
127 1 0.695728 0.697871 0.428341
213 1 0.821461 0.895359 0.437918
475 1 0.309586 0.990281 0.416706
423 1 0.318567 0.0808883 0.50527
303 1 0.341603 0.0377679 0.569575
304 1 0.664634 0.00951207 0.578047
391 1 0.760231 0.0466272 0.531077
241 1 0.912273 0.0688486 0.570894
118 1 0.0949035 0.131969 0.526493
264 1 0.318588 0.118491 0.520642
460 1 0.336442 0.105478 0.501214
179 1 0.725198 0.0998771 0.552632
226 1 0.912334 0.103684 0.5259
231 1 0.991379 0.15302 0.546059
339 1 0.797077 0.208715 0.557285
397 1 0.387438 0.297636 0.515992
257 1 0.496836 0.331672 0.520347
164 1 0.584974 0.326003 0.533804
425 1 0.0365076 0.455395 0.554872
85 1 0.436998 0.457272 0.523365
331 1 0.65154 0.451958 0.514519
469 1 0.271865 0.518928 0.550693
265 1 0.638657 0.575584 0.582611
314 1 0.165611 0.639269 0.56483
337 1 0.134406 0.590695 0.539077
398 1 0.172291 0.637067 0.538721
88 1 0.85726 0.823349 0.552977
51 1 0.381787 0.83733 0.544115
467 1 0.702557 0.882936 0.564125
224 1 0.920076 0.873976 0.542449
454 1 0.206338 0.00904974 0.633658
148 1 0.0450027 0.1654 0.621561
170 1 0.162037 0.147988 0.66056
361 1 0.347902 0.129474 0.628032
52 1 0.555304 0.16581 0.628366
385 1 0.064071 0.172902 0.609197
503 1 0.104999 0.180529 0.624088
291 1 0.902424 0.241508 0.645353
406 1 0.87538 0.255917 0.598467
185 1 0.165152 0.409018 0.601739
73 1 0.592528 0.381515 0.607978
269 1 0.899027 0.34795 0.646096
477 1 0.419448 0.418011 0.604333
354 1 0.427879 0.499035 0.58973
152 1 0.966422 0.471791 0.590558
216 1 0.430242 0.591471 0.658775
487 1 0.445818 0.583417 0.638214
78 1 0.444657 0.611767 0.650342
167 1 0.880566 0.584282 0.600145
83 1 0.837354 0.630798 0.596343
122 1 0.0657765 0.68215 0.611689
338 1 0.0766412 0.737872 0.656428
49 1 0.267389 0.739294 0.621979
412 1 0.415398 0.732597 0.655454
191 1 0.318229 0.906297 0.622732
200 1 0.869824 0.912785 0.636667
169 1 0.850818 0.90172 0.627056
95 1 0.990623 0.837259 0.620464
504 1 0.220798 0.95273 0.608057
261 1 0.223426 0.994451 0.61478
327 1 0.290116 0.925247 0.612065
335 1 0.297006 0.927088 0.648191
307 1 0.452794 0.984727 0.647354
413 1 0.427173 0.978543 0.642524
250 1 0.7463 0.977706 0.604915
410 1 0.688215 0.948011 0.624655
392 1 0.287958 0.0835695 0.679112
297 1 0.797199 0.147754 0.676705
496 1 0.158355 0.279174 0.707652
374 1 0.622834 0.280385 0.680571
285 1 0.205924 0.410535 0.742109
353 1 0.167063 0.339203 0.687381
96 1 0.485249 0.369541 0.729386
294 1 0.828767 0.404367 0.734009
256 1 0.780429 0.382381 0.733187
263 1 0.360507 0.424956 0.746365
76 1 0.393162 0.459917 0.673339
356 1 0.495175 0.461033 0.735556
407 1 0.692894 0.464702 0.699186
238 1 0.746658 0.434966 0.748504
386 1 0.44893 0.580103 0.704813
485 1 0.871205 0.509856 0.685011
165 1 0.0610772 0.658348 0.748037
181 1 0.251034 0.64717 0.704451
395 1 0.365357 0.65497 0.675729
497 1 0.362737 0.63155 0.687544
448 1 0.31454 0.673522 0.717575
428 1 0.259554 0.721534 0.744799
59 1 0.434293 0.67519 0.706708
390 1 0.464816 0.745402 0.731165
321 1 0.544951 0.676446 0.745951
247 1 0.0415895 0.830322 0.682607
151 1 0.0220658 0.786526 0.698451
298 1 0.203412 0.794192 0.731633
499 1 0.254529 0.769067 0.737519
465 1 0.664797 0.822081 0.748761
402 1 0.641813 0.827027 0.740243
468 1 0.709796 0.813443 0.730324
452 1 0.0158128 0.857093 0.699312
379 1 0.323933 0.885056 0.725427
72 1 0.500323 0.87054 0.733611
135 1 0.659716 0.881072 0.743566
217 1 0.653513 0.858865 0.747916
177 1 0.658098 0.889686 0.716607
260 1 0.598712 0.83741 0.742341
455 1 0.621644 0.850865 0.72437
474 1 0.667565 0.842302 0.735681
399 1 0.71757 0.868321 0.728101
105 1 0.676835 0.863122 0.742237
10 1 0.711275 0.842032 0.742488
8 1 0.692864 0.88163 0.730054
319 1 0.696203 0.855575 0.729518
478 1 0.699622 0.863463 0.749388
383 1 0.676264 0.899536 0.736325
26 1 0.678381 0.913415 0.710699
274 1 0.707668 0.892429 0.748526
345 1 0.732831 0.860683 0.749814
110 1 0.153578 0.987781 0.712101
74 1 0.132795 0.97506 0.712087
481 1 0.70026 0.91759 0.737211
149 1 0.937895 0.935002 0.7145
389 1 0.105641 0.0240215 0.782944
367 1 0.413807 0.0331317 0.755221
418 1 0.501538 0.0166711 0.806886
139 1 0.375119 0.133297 0.823199
355 1 0.877308 0.152019 0.812544
30 1 0.389901 0.284946 0.767013
202 1 0.74919 0.271751 0.796827
509 1 0.751716 0.404673 0.75341
505 1 0.00399928 0.43582 0.809686
365 1 0.222955 0.458933 0.798698
381 1 0.177733 0.496135 0.750492
144 1 0.377989 0.435605 0.827735
176 1 0.37486 0.458881 0.820392
253 1 0.756655 0.494417 0.772292
451 1 0.513726 0.516296 0.757098
140 1 0.786573 0.525185 0.820069
207 1 0.761381 0.538513 0.808132
206 1 0.785575 0.537386 0.784179
332 1 0.043735 0.641253 0.769558
159 1 0.102801 0.603036 0.753485
35 1 0.352538 0.6156 0.807745
54 1 0.348007 0.619896 0.781366
108 1 0.490153 0.639795 0.793895
464 1 0.919519 0.587584 0.778407
186 1 0.931387 0.614576 0.775727
252 1 0.934519 0.635191 0.764081
424 1 0.327943 0.719726 0.792144
507 1 0.671554 0.718967 0.83324
380 1 0.848147 0.687826 0.77354
502 1 0.654531 0.798288 0.761179
114 1 0.665377 0.808363 0.807033
280 1 0.638608 0.833082 0.821593
77 1 0.647327 0.826131 0.767229
344 1 0.672238 0.824863 0.773224
366 1 0.709131 0.797739 0.762907
84 1 0.69745 0.820344 0.775596
506 1 0.688511 0.813003 0.833285
94 1 0.68922 0.784851 0.776836
158 1 0.676411 0.80682 0.760185
476 1 0.702942 0.814921 0.813993
180 1 0.688564 0.819485 0.797479
369 1 0.669469 0.828462 0.818624
511 1 0.712723 0.829324 0.797514
480 1 0.678253 0.802059 0.78358
301 1 0.718985 0.817548 0.776615
490 1 0.701172 0.817507 0.751439
123 1 0.705145 0.800451 0.791253
143 1 0.73589 0.821609 0.799923
141 1 0.728646 0.813917 0.754799
160 1 0.804855 0.810168 0.798982
382 1 0.634235 0.870961 0.813058
278 1 0.657412 0.906007 0.783991
31 1 0.644439 0.878218 0.78979
101 1 0.658933 0.837304 0.792634
259 1 0.640966 0.891256 0.750836
29 1 0.633093 0.849149 0.79843
488 1 0.646737 0.854376 0.830424
415 1 0.657275 0.874523 0.812396
156 1 0.666282 0.863374 0.790867
371 1 0.649552 0.850879 0.775968
234 1 0.656181 0.876655 0.768421
445 1 0.631015 0.870568 0.762304
120 1 0.664253 0.899912 0.759537
302 1 0.663089 0.850496 0.812618
329 1 0.641778 0.910166 0.801779
277 1 0.648259 0.890714 0.82896
130 1 0.683303 0.841122 0.7899
295 1 0.742929 0.906805 0.771237
313 1 0.672999 0.892454 0.806593
25 1 0.69574 0.840752 0.810392
343 1 0.677748 0.86669 0.766598
146 1 0.718585 0.834436 0.828918
56 1 0.730961 0.844108 0.805635
457 1 0.727317 0.837987 0.782853
495 1 0.743486 0.863374 0.810363
459 1 0.683038 0.883831 0.751984
348 1 0.678097 0.889913 0.779311
23 1 0.702501 0.878548 0.771448
272 1 0.741021 0.882591 0.798653
82 1 0.720068 0.891329 0.811407
113 1 0.689071 0.902544 0.765196
87 1 0.667635 0.90243 0.828048
178 1 0.683786 0.910117 0.792224
55 1 0.690597 0.891984 0.831425
394 1 0.708708 0.851126 0.794025
14 1 0.694426 0.851551 0.774356
315 1 0.712718 0.875845 0.791275
449 1 0.688991 0.839625 0.750949
41 1 0.687018 0.868786 0.817509
225 1 0.667996 0.843864 0.760267
142 1 0.698603 0.894065 0.799999
214 1 0.737476 0.844644 0.763396
483 1 0.745643 0.871917 0.773703
111 1 0.720513 0.901351 0.790583
384 1 0.71118 0.837624 0.765753
450 1 0.690234 0.915185 0.818877
470 1 0.688516 0.870772 0.791356
183 1 0.717975 0.859694 0.76605
53 1 0.724203 0.882092 0.768134
132 1 0.713589 0.911813 0.765
435 1 0.729877 0.861944 0.786086
414 1 0.702857 0.854788 0.828879
378 1 0.716777 0.865968 0.811296
358 1 0.744832 0.83691 0.825921
430 1 0.730467 0.856011 0.833219
221 1 0.718626 0.878932 0.832439
421 1 0.740223 0.884149 0.82465
20 1 0.750748 0.846233 0.786542
283 1 0.98571 0.888485 0.778207
466 1 0.388143 0.979394 0.833297
43 1 0.664177 0.953172 0.789952
494 1 0.661785 0.929945 0.788708
350 1 0.641923 0.920207 0.770974
270 1 0.663898 0.917251 0.811873
471 1 0.669606 0.922212 0.764707
351 1 0.828178 0.931141 0.763803
387 1 0.889538 0.940441 0.777176
47 1 0.195646 0.0274178 0.895348
276 1 0.494607 0.0722094 0.849693
104 1 0.996584 0.0975254 0.838797
433 1 0.0209923 0.237957 0.846813
248 1 0.17551 0.208963 0.853107
236 1 0.253614 0.182007 0.852365
17 1 0.563094 0.283124 0.87932
138 1 0.846968 0.266874 0.852835
6 1 0.064051 0.369142 0.909031
5 1 0.390386 0.403685 0.870579
11 1 0.41809 0.350167 0.890179
1 1 0.589829 0.391901 0.909987
174 1 0.165087 0.465508 0.867473
147 1 0.379797 0.441157 0.86181
168 1 0.351766 0.452528 0.876634
360 1 0.434843 0.434505 0.854012
429 1 0.513897 0.479165 0.907988
239 1 0.663063 0.459442 0.864258
305 1 0.689588 0.424255 0.916159
262 1 0.976807 0.471073 0.882952
3 1 0.0177781 0.582702 0.906541
7 1 0.127266 0.58232 0.905895
126 1 0.538807 0.56863 0.894376
175 1 0.0395133 0.592246 0.897655
258 1 0.148014 0.74304 0.874739
117 1 0.392908 0.727185 0.907007
99 1 0.341471 0.668607 0.889287
198 1 0.431086 0.76154 0.833378
255 1 0.503993 0.786065 0.836081
446 1 0.684828 0.831467 0.854608
37 1 0.701578 0.809761 0.854848
362 1 0.724803 0.820916 0.849323
286 1 0.692144 0.786852 0.838535
334 1 0.710847 0.805976 0.834295
420 1 0.145923 0.910338 0.915562
61 1 0.511891 0.915747 0.858938
66 1 0.660482 0.833838 0.838181
324 1 0.678501 0.847929 0.835864
336 1 0.69001 0.8736 0.857562
34 1 0.691335 0.910523 0.847723
400 1 0.667642 0.871142 0.837031
154 1 0.692482 0.85298 0.871304
233 1 0.724994 0.873219 0.866122
289 1 0.709326 0.839572 0.850997
405 1 0.673764 0.891049 0.851021
500 1 0.672772 0.858029 0.857602
462 1 0.711498 0.899336 0.851431
193 1 0.689235 0.959602 0.835189
498 1 0.76381 0.927132 0.868226
24 1 0.29124 0.0396439 0.930321
240 1 0.379561 0.00951727 0.947047
408 1 0.474743 0.0426498 0.979028
287 1 0.981328 0.102501 0.997568
282 1 0.0120156 0.18398 0.924762
45 1 0.00117319 0.273062 0.974888
172 1 0.270302 0.255217 0.988586
254 1 0.754176 0.308774 0.993515
436 1 0.315655 0.345403 0.977192
75 1 0.81235 0.380039 0.968573
372 1 0.155438 0.458557 0.994648
352 1 0.876689 0.45897 0.923377
330 1 0.902145 0.435082 0.94765
229 1 0.426676 0.651847 0.947837
115 1 0.812247 0.586097 0.986138
162 1 0.169013 0.713728 0.961966
375 1 0.387968 0.729898 0.999865
218 1 0.393045 0.715018 0.96637
342 1 0.374594 0.707086 0.991758
57 1 0.472548 0.668385 0.952603
309 1 0.904409 0.682388 0.934869
12 1 0.530824 0.822599 0.955757
299 1 0.0687596 0.845771 0.984283
444 1 0.379277 0.982243 0.941957
204 1 0.745811 0.935106 0.945069
112 1 0.749403 0.94556 0.917906
13 1 0.788751 0.944343 0.958323
ITEM: TIMESTEP
510000
ITEM: NUMBER OF ATOMS
512
ITEM: BOX BOUNDS pp pp pp
0.0000000000000000e+00 4.0000000000000000e+01
0.0000000000000000e+00 4.0000000000000000e+01
0.0000000000000000e+00 4.0000000000000000e+01
ITEM: ATOMS id type xs ys zs
30 1 0.258514 0.0658669 0.0607082
148 1 0.380893 0.0462445 0.00247397
443 1 0.132562 0.112025 0.045697
16 1 0.792852 0.12737 0.0165168
305 1 0.979037 0.106092 0.0649929
59 1 0.209084 0.227316 0.00929284
296 1 0.372867 0.188747 0.0603098
373 1 0.960837 0.202862 0.0359023
354 1 0.391094 0.251603 0.0281149
321 1 0.621771 0.255922 0.000628179
262 1 0.727511 0.295549 0.0226891
306 1 0.786387 0.32043 0.0295211
472 1 0.347356 0.383692 0.0706353
39 1 0.578035 0.397176 0.0092496
484 1 0.564547 0.374656 0.0622592
170 1 0.306355 0.475748 0.0473547
181 1 0.315665 0.46074 0.071978
1 1 0.640475 0.443906 0.069663
327 1 0.8669 0.418807 0.046163
99 1 0.98713 0.465425 0.00545109
48 1 0.049982 0.555794 0.0469624
102 1 0.254542 0.653621 0.0375702
349 1 0.351018 0.610444 0.0197524
268 1 0.101211 0.718677 0.0192354
347 1 0.217655 0.723665 0.0612211
150 1 0.500107 0.735839 0.00243704
28 1 0.735396 0.7814 0.0213736
407 1 0.931449 0.764095 0.0648193
182 1 0.922697 0.78413 0.0356463
368 1 0.93306 0.806347 0.0293109
452 1 0.0312188 0.849555 0.0411841
387 1 0.268542 0.85671 0.0812113
360 1 0.685607 0.860864 0.0197339
432 1 0.330072 0.0555389 0.141667
455 1 0.469266 0.0544037 0.160867
250 1 0.442864 0.0572363 0.0895633
333 1 0.871556 0.160531 0.103834
11 1 0.0614056 0.230757 0.100088
263 1 0.205765 0.242186 0.114286
136 1 0.462254 0.213775 0.0900959
45 1 0.674212 0.228132 0.0892983
196 1 0.756583 0.210268 0.138605
285 1 0.300164 0.263063 0.105483
253 1 0.324231 0.387361 0.120537
129 1 0.266196 0.371923 0.123305
499 1 0.822743 0.366421 0.130392
183 1 0.811101 0.387561 0.0840248
7 1 0.879622 0.356222 0.103011
442 1 0.35245 0.491893 0.100214
65 1 0.150165 0.544088 0.0966421
496 1 0.461704 0.646746 0.138643
381 1 0.967787 0.585493 0.153622
264 1 0.898984 0.708528 0.155765
147 1 0.257337 0.758294 0.1086
73 1 0.9629 0.783747 0.154794
255 1 0.423102 0.877088 0.125743
441 1 0.445011 0.890299 0.160428
12 1 0.581886 0.874793 0.120685
498 1 0.640734 0.860817 0.159722
471 1 0.646541 0.870609 0.139214
176 1 0.714826 0.889181 0.138966
374 1 0.650439 0.928812 0.119909
163 1 0.202044 0.0855544 0.177536
357 1 0.305266 0.237511 0.249361
393 1 0.393485 0.191978 0.225744
231 1 0.0547932 0.268946 0.200738
122 1 0.985427 0.265314 0.23532
226 1 0.300189 0.374844 0.178157
456 1 0.457782 0.390635 0.185402
512 1 0.254524 0.437901 0.229262
503 1 0.961841 0.568795 0.171052
355 1 0.927433 0.552932 0.246673
216 1 0.584024 0.625949 0.176385
252 1 0.93006 0.61935 0.219137
303 1 0.130821 0.7284 0.188998
72 1 0.12893 0.766675 0.170439
234 1 0.530691 0.778769 0.219885
207 1 0.0183305 0.850508 0.220134
108 1 0.0225394 0.844712 0.193202
279 1 0.505305 0.83911 0.191294
467 1 0.891467 0.913954 0.220993
392 1 0.0219812 0.971066 0.168745
302 1 0.266508 0.0168275 0.311715
38 1 0.359584 0.0373702 0.27926
35 1 0.642144 0.0385465 0.327221
199 1 0.658271 0.0241108 0.258979
61 1 0.89847 0.037857 0.286115
401 1 0.183717 0.127902 0.272497
359 1 0.560574 0.125391 0.27941
247 1 0.0387906 0.208764 0.313279
51 1 0.0641875 0.21198 0.312777
308 1 0.121683 0.230737 0.256651
95 1 0.408767 0.176643 0.329061
17 1 0.000941544 0.266585 0.254305
128 1 0.0620982 0.314385 0.260741
489 1 0.711925 0.257992 0.274153
191 1 0.704101 0.29667 0.319285
13 1 0.0966488 0.33523 0.29609
241 1 0.392854 0.376847 0.274414
433 1 0.595747 0.404946 0.305423
260 1 0.624131 0.358167 0.286198
257 1 0.849095 0.415998 0.32608
389 1 0.682323 0.461092 0.32273
240 1 0.754485 0.497632 0.282101
395 1 0.485575 0.567304 0.253649
482 1 0.260667 0.600375 0.305245
473 1 0.583389 0.662505 0.27392
139 1 0.933635 0.713464 0.311592
155 1 0.410286 0.817123 0.257936
266 1 0.499324 0.751201 0.261211
376 1 0.673324 0.81284 0.296812
131 1 0.705457 0.785648 0.292329
220 1 0.667429 0.901764 0.258746
52 1 0.84751 0.893241 0.279054
230 1 0.0246026 0.990113 0.309573
422 1 0.108632 0.98554 0.25946
248 1 0.989971 0.997234 0.303803
453 1 0.987543 0.0790409 0.413447
474 1 0.177589 0.153045 0.389022
83 1 0.288293 0.0946806 0.365493
222 1 0.304401 0.112055 0.38008
77 1 0.395228 0.0990247 0.34908
320 1 0.13221 0.201295 0.376569
284 1 0.138729 0.210621 0.354247
193 1 0.329017 0.239011 0.412079
44 1 0.351467 0.209211 0.361278
43 1 0.40035 0.217262 0.350549
205 1 0.571047 0.200317 0.396542
245 1 0.660149 0.23955 0.340455
63 1 0.41154 0.275651 0.347235
210 1 0.467943 0.293731 0.344489
418 1 0.700899 0.265973 0.399242
328 1 0.126032 0.384759 0.385483
267 1 0.107768 0.368104 0.399038
356 1 0.345084 0.393654 0.351303
450 1 0.638339 0.333744 0.41171
235 1 0.928324 0.414914 0.362551
312 1 0.93047 0.382993 0.407944
508 1 0.0840159 0.467142 0.348
386 1 0.349124 0.477989 0.387159
323 1 0.353934 0.472131 0.361886
378 1 0.672734 0.460524 0.384954
56 1 0.0141602 0.576094 0.396531
37 1 0.41017 0.532015 0.372889
236 1 0.542329 0.542853 0.375768
192 1 0.620318 0.524176 0.387789
204 1 0.822462 0.523449 0.336749
76 1 0.965 0.580711 0.344721
103 1 0.110292 0.589869 0.384839
209 1 0.0346197 0.687415 0.404845
223 1 0.49215 0.73582 0.413194
437 1 0.536358 0.71777 0.408825
406 1 0.556304 0.748444 0.34324
377 1 0.0538124 0.797057 0.386442
426 1 0.394326 0.773077 0.394238
115 1 0.251347 0.837854 0.356016
249 1 0.909048 0.913987 0.358212
82 1 0.371354 0.92248 0.364886
385 1 0.0814443 0.0142271 0.41725
75 1 0.276545 0.00299382 0.47602
507 1 0.523922 0.0188472 0.473847
271 1 0.721872 0.0621406 0.49075
447 1 0.0617173 0.157384 0.433922
111 1 0.497416 0.111387 0.431599
434 1 0.532211 0.145387 0.440531
171 1 0.659668 0.129679 0.44458
69 1 0.30625 0.21877 0.434352
341 1 0.0867642 0.384277 0.462123
70 1 0.200944 0.355753 0.427839
464 1 0.438149 0.334149 0.499429
454 1 0.537147 0.432489 0.434681
367 1 0.0545027 0.542199 0.423627
289 1 0.608642 0.56552 0.437089
133 1 0.0310689 0.590096 0.419084
340 1 0.179652 0.634788 0.45198
509 1 0.310623 0.637951 0.45869
98 1 0.269786 0.665079 0.455705
32 1 0.39246 0.653275 0.485898
283 1 0.834484 0.647294 0.457054
346 1 0.949626 0.652567 0.460832
451 1 0.276553 0.699055 0.436484
8 1 0.363967 0.743953 0.463013
177 1 0.715203 0.796736 0.434475
429 1 0.898779 0.81473 0.488471
121 1 0.85754 0.824186 0.420862
435 1 0.139317 0.957124 0.479761
160 1 0.89095 0.986851 0.43861
97 1 0.233197 0.0534586 0.5004
311 1 0.396871 0.0703653 0.515999
93 1 0.546154 0.0302775 0.50122
475 1 0.713552 0.0612056 0.546429
195 1 0.782819 0.0575507 0.520344
138 1 0.816899 0.0419497 0.581804
140 1 0.54008 0.0921752 0.546619
184 1 0.652215 0.0970987 0.510034
304 1 0.456684 0.173791 0.582819
497 1 0.59873 0.2324 0.549147
194 1 0.132742 0.324978 0.558897
298 1 0.269566 0.276685 0.508809
118 1 0.352446 0.269308 0.526107
134 1 0.536034 0.324771 0.51615
219 1 0.323853 0.390536 0.55863
110 1 0.498965 0.349366 0.514018
495 1 0.910223 0.335025 0.501752
127 1 0.917165 0.343025 0.537763
419 1 0.249904 0.563808 0.541482
21 1 0.801532 0.530922 0.527543
369 1 0.575499 0.613845 0.511046
151 1 0.611487 0.625571 0.55067
89 1 0.42574 0.737731 0.525465
104 1 0.845084 0.708663 0.526717
485 1 0.452539 0.776666 0.505897
67 1 0.610408 0.774104 0.53199
504 1 0.490887 0.852286 0.538915
198 1 0.531889 0.870614 0.516447
27 1 0.328145 0.940227 0.578318
390 1 0.800374 0.0490935 0.649514
167 1 0.487238 0.160098 0.654382
488 1 0.661439 0.152544 0.629277
492 1 0.638488 0.15472 0.642664
339 1 0.899284 0.13707 0.654085
425 1 0.887994 0.180877 0.63907
244 1 0.226139 0.332058 0.616768
423 1 0.680921 0.32421 0.660827
40 1 0.219384 0.414588 0.655996
86 1 0.675623 0.389029 0.588434
146 1 0.712321 0.373804 0.593167
9 1 0.216776 0.432751 0.63709
229 1 0.421866 0.480394 0.605921
494 1 0.487867 0.575196 0.617336
460 1 0.89086 0.538944 0.588862
491 1 0.858172 0.539431 0.60948
430 1 0.464057 0.652679 0.651701
36 1 0.705251 0.611018 0.647639
510 1 0.00919426 0.66669 0.629974
42 1 0.181709 0.675712 0.630026
161 1 0.418778 0.731491 0.646464
458 1 0.423832 0.728862 0.623016
179 1 0.0666024 0.828924 0.662631
411 1 0.0583331 0.762521 0.595035
227 1 0.132895 0.790483 0.615115
149 1 0.148852 0.799503 0.654045
94 1 0.127545 0.795569 0.637847
309 1 0.213751 0.820492 0.659218
165 1 0.322197 0.8191 0.592593
201 1 0.403243 0.785888 0.666104
337 1 0.82411 0.784353 0.613841
294 1 0.0555113 0.889109 0.64205
34 1 0.104511 0.852678 0.649441
436 1 0.498691 0.864354 0.624494
175 1 0.586812 0.989277 0.630703
185 1 0.706794 0.964832 0.611807
404 1 0.0502942 0.0356201 0.694833
190 1 0.649638 0.00218689 0.707533
168 1 0.612971 0.00361698 0.733105
189 1 0.537859 0.148104 0.720441
169 1 0.592889 0.0923487 0.709501
322 1 0.625481 0.14631 0.733806
224 1 0.968551 0.143705 0.723377
361 1 0.300448 0.230065 0.678264
335 1 0.281523 0.217897 0.735051
125 1 0.262499 0.234658 0.712302
228 1 0.5219 0.185987 0.706856
424 1 0.592186 0.178337 0.740137
293 1 0.898486 0.206404 0.69116
29 1 0.280627 0.25413 0.704169
49 1 0.475629 0.269555 0.742675
126 1 0.68353 0.26118 0.668813
363 1 0.644803 0.373667 0.732464
91 1 0.609207 0.365851 0.71378
299 1 0.249821 0.457699 0.716217
3 1 0.810386 0.494243 0.742122
22 1 0.238394 0.574514 0.686303
412 1 0.282387 0.505545 0.721962
172 1 0.560552 0.568993 0.728731
137 1 0.598657 0.560961 0.704052
371 1 0.113399 0.637226 0.698893
124 1 0.400975 0.654818 0.710043
403 1 0.631195 0.657123 0.689448
159 1 0.776837 0.588474 0.742763
325 1 0.304386 0.669184 0.667086
344 1 0.554694 0.730354 0.749449
307 1 0.558839 0.737653 0.670909
501 1 0.91448 0.741311 0.745293
153 1 0.386424 0.866229 0.701552
301 1 0.574593 0.914789 0.730704
446 1 0.589769 0.898095 0.744969
380 1 0.606156 0.878409 0.746884
405 1 0.608154 0.915508 0.739698
399 1 0.630381 0.914943 0.731415
233 1 0.625671 0.889138 0.732801
366 1 0.648329 0.91549 0.747273
62 1 0.657843 0.895165 0.70446
310 1 0.663839 0.887227 0.742837
286 1 0.645878 0.898511 0.729067
203 1 0.682632 0.905862 0.708103
343 1 0.701158 0.910824 0.72312
445 1 0.686746 0.894681 0.742316
272 1 0.693031 0.915898 0.747737
141 1 0.671286 0.910445 0.736058
80 1 0.127305 0.932396 0.710089
232 1 0.576201 0.960231 0.713057
487 1 0.587947 0.969434 0.739643
120 1 0.65191 0.953622 0.711
478 1 0.616219 0.932097 0.720094
25 1 0.656963 0.933738 0.730325
480 1 0.642708 0.929544 0.706242
338 1 0.603316 0.94758 0.692852
506 1 0.589497 0.936288 0.741962
281 1 0.605346 0.952246 0.724605
14 1 0.645409 0.954212 0.739971
382 1 0.627336 0.934985 0.746776
511 1 0.615313 0.970804 0.709093
78 1 0.628354 0.951281 0.714752
143 1 0.637306 0.994946 0.739714
280 1 0.628893 0.966972 0.732193
394 1 0.666277 0.971611 0.726919
431 1 0.646652 0.977977 0.717275
53 1 0.605944 0.952616 0.748284
481 1 0.660611 0.916768 0.71389
483 1 0.651395 0.976341 0.744847
362 1 0.693757 0.939207 0.700238
15 1 0.70678 0.921184 0.699939
402 1 0.668238 0.937974 0.6984
414 1 0.676638 0.989679 0.74555
439 1 0.676546 0.949049 0.718047
87 1 0.669261 0.956669 0.745991
295 1 0.718391 0.925921 0.738171
101 1 0.698836 0.97777 0.746863
113 1 0.701619 0.937744 0.723754
211 1 0.701462 0.944043 0.74649
270 1 0.677463 0.934589 0.738944
23 1 0.682079 0.927054 0.715827
459 1 0.691643 0.963397 0.729441
132 1 0.913894 0.92977 0.74741
278 1 0.164358 0.0730613 0.805267
315 1 0.615123 0.0125454 0.779478
258 1 0.597787 0.0205398 0.792625
212 1 0.660394 0.0241426 0.77339
468 1 0.683787 0.00194956 0.769139
420 1 0.895278 0.0673347 0.758203
256 1 0.0454651 0.150179 0.807217
92 1 0.0249336 0.140309 0.812383
174 1 0.414225 0.21806 0.760292
409 1 0.375577 0.18487 0.787233
391 1 0.745246 0.21838 0.826945
90 1 0.952938 0.173334 0.799008
166 1 0.981487 0.245332 0.769896
46 1 0.106594 0.257894 0.824046
19 1 0.119572 0.279692 0.827283
145 1 0.3167 0.312819 0.814126
317 1 0.383223 0.299542 0.799072
364 1 0.431201 0.274216 0.779306
297 1 0.731348 0.311473 0.769033
187 1 0.823815 0.268246 0.81852
208 1 0.0959132 0.344398 0.832883
18 1 0.302461 0.395975 0.806891
57 1 0.400969 0.377141 0.813373
332 1 0.884873 0.401063 0.815271
444 1 0.900594 0.375747 0.755115
375 1 0.0426743 0.488198 0.829165
462 1 0.261254 0.450783 0.775694
152 1 0.588796 0.490987 0.825233
398 1 0.176809 0.56557 0.778684
396 1 0.440199 0.510444 0.806533
448 1 0.0957572 0.589685 0.784071
106 1 0.177273 0.624551 0.812944
142 1 0.335328 0.645103 0.789349
156 1 0.112866 0.737844 0.752605
144 1 0.598491 0.714439 0.824548
379 1 0.967737 0.670408 0.784216
331 1 0.19145 0.819458 0.783812
410 1 0.636979 0.811073 0.76223
55 1 0.818123 0.832391 0.774272
188 1 0.927179 0.767452 0.759425
413 1 0.2833 0.839882 0.818447
243 1 0.656071 0.860214 0.770433
269 1 0.640107 0.877251 0.831944
465 1 0.637725 0.864461 0.806182
215 1 0.629473 0.902687 0.778415
319 1 0.659995 0.867327 0.798666
214 1 0.624303 0.913661 0.758674
502 1 0.659529 0.908883 0.807619
282 1 0.665453 0.883618 0.769118
130 1 0.620522 0.88316 0.78973
254 1 0.615769 0.893489 0.761845
2 1 0.63362 0.911978 0.815579
334 1 0.598515 0.888892 0.775115
383 1 0.619477 0.864109 0.775563