ITEM: TIMESTEP
0
ITEM: NUMBER OF ATOMS
512
ITEM: BOX BOUNDS pp pp pp
0.0000000000000000e+00 4.0000000000000000e+01
0.0000000000000000e+00 4.0000000000000000e+01
0.0000000000000000e+00 4.0000000000000000e+01
ITEM: ATOMS id type xs ys zs
1 1 0.0625 0.0625 0.0625
65 1 0.1875 0.0625 0.0625
129 1 0.3125 0.0625 0.0625
193 1 0.4375 0.0625 0.0625
257 1 0.5625 0.0625 0.0625
321 1 0.6875 0.0625 0.0625
385 1 0.8125 0.0625 0.0625
449 1 0.9375 0.0625 0.0625
9 1 0.0625 0.1875 0.0625
73 1 0.1875 0.1875 0.0625
137 1 0.3125 0.1875 0.0625
201 1 0.4375 0.1875 0.0625
265 1 0.5625 0.1875 0.0625
329 1 0.6875 0.1875 0.0625
393 1 0.8125 0.1875 0.0625
457 1 0.9375 0.1875 0.0625
17 1 0.0625 0.3125 0.0625
81 1 0.1875 0.3125 0.0625
145 1 0.3125 0.3125 0.0625
209 1 0.4375 0.3125 0.0625
273 1 0.5625 0.3125 0.0625
337 1 0.6875 0.3125 0.0625
401 1 0.8125 0.3125 0.0625
465 1 0.9375 0.3125 0.0625
25 1 0.0625 0.4375 0.0625
89 1 0.1875 0.4375 0.0625
153 1 0.3125 0.4375 0.0625
217 1 0.4375 0.4375 0.0625
281 1 0.5625 0.4375 0.0625
345 1 0.6875 0.4375 0.0625
409 1 0.8125 0.4375 0.0625
473 1 0.9375 0.4375 0.0625
33 1 0.0625 0.5625 0.0625
97 1 0.1875 0.5625 0.0625
161 1 0.3125 0.5625 0.0625
225 1 0.4375 0.5625 0.0625
289 1 0.5625 0.5625 0.0625
353 1 0.6875 0.5625 0.0625
417 1 0.8125 0.5625 0.0625
481 1 0.9375 0.5625 0.0625
41 1 0.0625 0.6875 0.0625
105 1 0.1875 0.6875 0.0625
169 1 0.3125 0.6875 0.0625
233 1 0.4375 0.6875 0.0625
297 1 0.5625 0.6875 0.0625
361 1 0.6875 0.6875 0.0625
425 1 0.8125 0.6875 0.0625
489 1 0.9375 0.6875 0.0625
49 1 0.0625 0.8125 0.0625
113 1 0.1875 0.8125 0.0625
177 1 0.3125 0.8125 0.0625
241 1 0.4375 0.8125 0.0625
305 1 0.5625 0.8125 0.0625
369 1 0.6875 0.8125 0.0625
433 1 0.8125 0.8125 0.0625
497 1 0.9375 0.8125 0.0625
57 1 0.0625 0.9375 0.0625
121 1 0.1875 0.9375 0.0625
185 1 0.3125 0.9375 0.0625
249 1 0.4375 0.9375 0.0625
313 1 0.5625 0.9375 0.0625
377 1 0.6875 0.9375 0.0625
441 1 0.8125 0.9375 0.0625
505 1 0.9375 0.9375 0.0625
2 1 0.0625 0.0625 0.1875
66 1 0.1875 0.0625 0.1875
130 1 0.3125 0.0625 0.1875
194 1 0.4375 0.0625 0.1875
258 1 0.5625 0.0625 0.1875
322 1 0.6875 0.0625 0.1875
386 1 0.8125 0.0625 0.1875
450 1 0.9375 0.0625 0.1875
10 1 0.0625 0.1875 0.1875
74 1 0.1875 0.1875 0.1875
138 1 0.3125 0.1875 0.1875
202 1 0.4375 0.1875 0.1875
266 1 0.5625 0.1875 0.1875
330 1 0.6875 0.1875 0.1875
394 1 0.8125 0.1875 0.1875
458 1 0.9375 0.1875 0.1875
18 1 0.0625 0.3125 0.1875
82 1 0.1875 0.3125 0.1875
146 1 0.3125 0.3125 0.1875
210 1 0.4375 0.3125 0.1875
274 1 0.5625 0.3125 0.1875
338 1 0.6875 0.3125 0.1875
402 1 0.8125 0.3125 0.1875
466 1 0.9375 0.3125 0.1875
26 1 0.0625 0.4375 0.1875
90 1 0.1875 0.4375 0.1875
154 1 0.3125 0.4375 0.1875
218 1 0.4375 0.4375 0.1875
282 1 0.5625 0.4375 0.1875
346 1 0.6875 0.4375 0.1875
410 1 0.8125 0.4375 0.1875
474 1 0.9375 0.4375 0.1875
34 1 0.0625 0.5625 0.1875
98 1 0.1875 0.5625 0.1875
162 1 0.3125 0.5625 0.1875
226 1 0.4375 0.5625 0.1875
290 1 0.5625 0.5625 0.1875
354 1 0.6875 0.5625 0.1875
418 1 0.8125 0.5625 0.1875
482 1 0.9375 0.5625 0.1875
42 1 0.0625 0.6875 0.1875
106 1 0.1875 0.6875 0.1875
170 1 0.3125 0.6875 0.1875
234 1 0.4375 0.6875 0.1875
298 1 0.5625 0.6875 0.1875
362 1 0.6875 0.6875 0.1875
426 1 0.8125 0.6875 0.1875
490 1 0.9375 0.6875 0.1875
50 1 0.0625 0.8125 0.1875
114 1 0.1875 0.8125 0.1875
178 1 0.3125 0.8125 0.1875
242 1 0.4375 0.8125 0.1875
306 1 0.5625 0.8125 0.1875
370 1 0.6875 0.8125 0.1875
434 1 0.8125 0.8125 0.1875
498 1 0.9375 0.8125 0.1875
58 1 0.0625 0.9375 0.1875
122 1 0.1875 0.9375 0.1875
186 1 0.3125 0.9375 0.1875
250 1 0.4375 0.9375 0.1875
314 1 0.5625 0.9375 0.1875
378 1 0.6875 0.9375 0.1875
442 1 0.8125 0.9375 0.1875
506 1 0.9375 0.9375 0.1875
3 1 0.0625 0.0625 0.3125
67 1 0.1875 0.0625 0.3125
131 1 0.3125 0.0625 0.3125
195 1 0.4375 0.0625 0.3125
259 1 0.5625 0.0625 0.3125
323 1 0.6875 0.0625 0.3125
387 1 0.8125 0.0625 0.3125
451 1 0.9375 0.0625 0.3125
11 1 0.0625 0.1875 0.3125
75 1 0.1875 0.1875 0.3125
139 1 0.3125 0.1875 0.3125
203 1 0.4375 0.1875 0.3125
267 1 0.5625 0.1875 0.3125
331 1 0.6875 0.1875 0.3125
395 1 0.8125 0.1875 0.3125
459 1 0.9375 0.1875 0.3125
19 1 0.0625 0.3125 0.3125
83 1 0.1875 0.3125 0.3125
147 1 0.3125 0.3125 0.3125
211 1 0.4375 0.3125 0.3125
275 1 0.5625 0.3125 0.3125
339 1 0.6875 0.3125 0.3125
403 1 0.8125 0.3125 0.3125
467 1 0.9375 0.3125 0.3125
27 1 0.0625 0.4375 0.3125
91 1 0.1875 0.4375 0.3125
155 1 0.3125 0.4375 0.3125
219 1 0.4375 0.4375 0.3125
283 1 0.5625 0.4375 0.3125
347 1 0.6875 0.4375 0.3125
411 1 0.8125 0.4375 0.3125
475 1 0.9375 0.4375 0.3125
35 1 0.0625 0.5625 0.3125
99 1 0.1875 0.5625 0.3125
163 1 0.3125 0.5625 0.3125
227 1 0.4375 0.5625 0.3125
291 1 0.5625 0.5625 0.3125
355 1 0.6875 0.5625 0.3125
419 1 0.8125 0.5625 0.3125
483 1 0.9375 0.5625 0.3125
43 1 0.0625 0.6875 0.3125
107 1 0.1875 0.6875 0.3125
171 1 0.3125 0.6875 0.3125
235 1 0.4375 0.6875 0.3125
299 1 0.5625 0.6875 0.3125
363 1 0.6875 0.6875 0.3125
427 1 0.8125 0.6875 0.3125
491 1 0.9375 0.6875 0.3125
51 1 0.0625 0.8125 0.3125
115 1 0.1875 0.8125 0.3125
179 1 0.3125 0.8125 0.3125
243 1 0.4375 0.8125 0.3125
307 1 0.5625 0.8125 0.3125
371 1 0.6875 0.8125 0.3125
435 1 0.8125 0.8125 0.3125
499 1 0.9375 0.8125 0.3125
59 1 0.0625 0.9375 0.3125
123 1 0.1875 0.9375 0.3125
187 1 0.3125 0.9375 0.3125
251 1 0.4375 0.9375 0.3125
315 1 0.5625 0.9375 0.3125
379 1 0.6875 0.9375 0.3125
443 1 0.8125 0.9375 0.3125
507 1 0.9375 0.9375 0.3125
4 1 0.0625 0.0625 0.4375
68 1 0.1875 0.0625 0.4375
132 1 0.3125 0.0625 0.4375
196 1 0.4375 0.0625 0.4375
260 1 0.5625 0.0625 0.4375
324 1 0.6875 0.0625 0.4375
388 1 0.8125 0.0625 0.4375
452 1 0.9375 0.0625 0.4375
12 1 0.0625 0.1875 0.4375
76 1 0.1875 0.1875 0.4375
140 1 0.3125 0.1875 0.4375
204 1 0.4375 0.1875 0.4375
268 1 0.5625 0.1875 0.4375
332 1 0.6875 0.1875 0.4375
396 1 0.8125 0.1875 0.4375
460 1 0.9375 0.1875 0.4375
20 1 0.0625 0.3125 0.4375
84 1 0.1875 0.3125 0.4375
148 1 0.3125 0.3125 0.4375
212 1 0.4375 0.3125 0.4375
276 1 0.5625 0.3125 0.4375
340 1 0.6875 0.3125 0.4375
404 1 0.8125 0.3125 0.4375
468 1 0.9375 0.3125 0.4375
28 1 0.0625 0.4375 0.4375
92 1 0.1875 0.4375 0.4375
156 1 0.3125 0.4375 0.4375
220 1 0.4375 0.4375 0.4375
284 1 0.5625 0.4375 0.4375
348 1 0.6875 0.4375 0.4375
412 1 0.8125 0.4375 0.4375
476 1 0.9375 0.4375 0.4375
36 1 0.0625 0.5625 0.4375
100 1 0.1875 0.5625 0.4375
164 1 0.3125 0.5625 0.4375
228 1 0.4375 0.5625 0.4375
292 1 0.5625 0.5625 0.4375
356 1 0.6875 0.5625 0.4375
420 1 0.8125 0.5625 0.4375
484 1 0.9375 0.5625 0.4375
44 1 0.0625 0.6875 0.4375
108 1 0.1875 0.6875 0.4375
172 1 0.3125 0.6875 0.4375
236 1 0.4375 0.6875 0.4375
300 1 0.5625 0.6875 0.4375
364 1 0.6875 0.6875 0.4375
428 1 0.8125 0.6875 0.4375
492 1 0.9375 0.6875 0.4375
52 1 0.0625 0.8125 0.4375
116 1 0.1875 0.8125 0.4375
180 1 0.3125 0.8125 0.4375
244 1 0.4375 0.8125 0.4375
308 1 0.5625 0.8125 0.4375
372 1 0.6875 0.8125 0.4375
436 1 0.8125 0.8125 0.4375
500 1 0.9375 0.8125 0.4375
60 1 0.0625 0.9375 0.4375
124 1 0.1875 0.9375 0.4375
188 1 0.3125 0.9375 0.4375
252 1 0.4375 0.9375 0.4375
316 1 0.5625 0.9375 0.4375
380 1 0.6875 0.9375 0.4375
444 1 0.8125 0.9375 0.4375
508 1 0.9375 0.9375 0.4375
5 1 0.0625 0.0625 0.5625
69 1 0.1875 0.0625 0.5625
133 1 0.3125 0.0625 0.5625
197 1 0.4375 0.0625 0.5625
261 1 0.5625 0.0625 0.5625
325 1 0.6875 0.0625 0.5625
389 1 0.8125 0.0625 0.5625
453 1 0.9375 0.0625 0.5625
13 1 0.0625 0.1875 0.5625
77 1 0.1875 0.1875 0.5625
141 1 0.3125 0.1875 0.5625
205 1 0.4375 0.1875 0.5625
269 1 0.5625 0.1875 0.5625
333 1 0.6875 0.1875 0.5625
397 1 0.8125 0.1875 0.5625
461 1 0.9375 0.1875 0.5625
21 1 0.0625 0.3125 0.5625
85 1 0.1875 0.3125 0.5625
149 1 0.3125 0.3125 0.5625
213 1 0.4375 0.3125 0.5625
277 1 0.5625 0.3125 0.5625
341 1 0.6875 0.3125 0.5625
405 1 0.8125 0.3125 0.5625
469 1 0.9375 0.3125 0.5625
29 1 0.0625 0.4375 0.5625
93 1 0.1875 0.4375 0.5625
157 1 0.3125 0.4375 0.5625
221 1 0.4375 0.4375 0.5625
285 1 0.5625 0.4375 0.5625
349 1 0.6875 0.4375 0.5625
413 1 0.8125 0.4375 0.5625
477 1 0.9375 0.4375 0.5625
37 1 0.0625 0.5625 0.5625
101 1 0.1875 0.5625 0.5625
165 1 0.3125 0.5625 0.5625
229 1 0.4375 0.5625 0.5625
293 1 0.5625 0.5625 0.5625
357 1 0.6875 0.5625 0.5625
421 1 0.8125 0.5625 0.5625
485 1 0.9375 0.5625 0.5625
45 1 0.0625 0.6875 0.5625
109 1 0.1875 0.6875 0.5625
173 1 0.3125 0.6875 0.5625
237 1 0.4375 0.6875 0.5625
301 1 0.5625 0.6875 0.5625
365 1 0.6875 0.6875 0.5625
429 1 0.8125 0.6875 0.5625
493 1 0.9375 0.6875 0.5625
53 1 0.0625 0.8125 0.5625
117 1 0.1875 0.8125 0.5625
181 1 0.3125 0.8125 0.5625
245 1 0.4375 0.8125 0.5625
309 1 0.5625 0.8125 0.5625
373 1 0.6875 0.8125 0.5625
437 1 0.8125 0.8125 0.5625
501 1 0.9375 0.8125 0.5625
61 1 0.0625 0.9375 0.5625
125 1 0.1875 0.9375 0.5625
189 1 0.3125 0.9375 0.5625
253 1 0.4375 0.9375 0.5625
317 1 0.5625 0.9375 0.5625
381 1 0.6875 0.9375 0.5625
445 1 0.8125 0.9375 0.5625
509 1 0.9375 0.9375 0.5625
6 1 0.0625 0.0625 0.6875
70 1 0.1875 0.0625 0.6875
134 1 0.3125 0.0625 0.6875
198 1 0.4375 0.0625 0.6875
262 1 0.5625 0.0625 0.6875
326 1 0.6875 0.0625 0.6875
390 1 0.8125 0.0625 0.6875
454 1 0.9375 0.0625 0.6875
14 1 0.0625 0.1875 0.6875
78 1 0.1875 0.1875 0.6875
142 1 0.3125 0.1875 0.6875
206 1 0.4375 0.1875 0.6875
270 1 0.5625 0.1875 0.6875
334 1 0.6875 0.1875 0.6875
398 1 0.8125 0.1875 0.6875
462 1 0.9375 0.1875 0.6875
22 1 0.0625 0.3125 0.6875
86 1 0.1875 0.3125 0.6875
150 1 0.3125 0.3125 0.6875
214 1 0.4375 0.3125 0.6875
278 1 0.5625 0.3125 0.6875
342 1 0.6875 0.3125 0.6875
406 1 0.8125 0.3125 0.6875
470 1 0.9375 0.3125 0.6875
30 1 0.0625 0.4375 0.6875
94 1 0.1875 0.4375 0.6875
158 1 0.3125 0.4375 0.6875
222 1 0.4375 0.4375 0.6875
286 1 0.5625 0.4375 0.6875
350 1 0.6875 0.4375 0.6875
414 1 0.8125 0.4375 0.6875
478 1 0.9375 0.4375 0.6875
38 1 0.0625 0.5625 0.6875
102 1 0.1875 0.5625 0.6875
166 1 0.3125 0.5625 0.6875
230 1 0.4375 0.5625 0.6875
294 1 0.5625 0.5625 0.6875
358 1 0.6875 0.5625 0.6875
422 1 0.8125 0.5625 0.6875
486 1 0.9375 0.5625 0.6875
46 1 0.0625 0.6875 0.6875
110 1 0.1875 0.6875 0.6875
174 1 0.3125 0.6875 0.6875
238 1 0.4375 0.6875 0.6875
302 1 0.5625 0.6875 0.6875
366 1 0.6875 0.6875 0.6875
430 1 0.8125 0.6875 0.6875
494 1 0.9375 0.6875 0.6875
54 1 0.0625 0.8125 0.6875
118 1 0.1875 0.8125 0.6875
182 1 0.3125 0.8125 0.6875
246 1 0.4375 0.8125 0.6875
310 1 0.5625 0.8125 0.6875
374 1 0.6875 0.8125 0.6875
438 1 0.8125 0.8125 0.6875
502 1 0.9375 0.8125 0.6875
62 1 0.0625 0.9375 0.6875
126 1 0.1875 0.9375 0.6875
190 1 0.3125 0.9375 0.6875
254 1 0.4375 0.9375 0.6875
318 1 0.5625 0.9375 0.6875
382 1 0.6875 0.9375 0.6875
446 1 0.8125 0.9375 0.6875
510 1 0.9375 0.9375 0.6875
7 1 0.0625 0.0625 0.8125
71 1 0.1875 0.0625 0.8125
135 1 0.3125 0.0625 0.8125
199 1 0.4375 0.0625 0.8125
263 1 0.5625 0.0625 0.8125
327 1 0.6875 0.0625 0.8125
391 1 0.8125 0.0625 0.8125
455 1 0.9375 0.0625 0.8125
15 1 0.0625 0.1875 0.8125
79 1 0.1875 0.1875 0.8125
143 1 0.3125 0.1875 0.8125
207 1 0.4375 0.1875 0.8125
271 1 0.5625 0.1875 0.8125
335 1 0.6875 0.1875 0.8125
399 1 0.8125 0.1875 0.8125
463 1 0.9375 0.1875 0.8125
23 1 0.0625 0.3125 0.8125
87 1 0.1875 0.3125 0.8125
151 1 0.3125 0.3125 0.8125
215 1 0.4375 0.3125 0.8125
279 1 0.5625 0.3125 0.8125
343 1 0.6875 0.3125 0.8125
407 1 0.8125 0.3125 0.8125
471 1 0.9375 0.3125 0.8125
31 1 0.0625 0.4375 0.8125
95 1 0.1875 0.4375 0.8125
159 1 0.3125 0.4375 0.8125
223 1 0.4375 0.4375 0.8125
287 1 0.5625 0.4375 0.8125
351 1 0.6875 0.4375 0.8125
415 1 0.8125 0.4375 0.8125
479 1 0.9375 0.4375 0.8125
39 1 0.0625 0.5625 0.8125
103 1 0.1875 0.5625 0.8125
167 1 0.3125 0.5625 0.8125
231 1 0.4375 0.5625 0.8125
295 1 0.5625 0.5625 0.8125
359 1 0.6875 0.5625 0.8125
423 1 0.8125 0.5625 0.8125
487 1 0.9375 0.5625 0.8125
47 1 0.0625 0.6875 0.8125
111 1 0.1875 0.6875 0.8125
175 1 0.3125 0.6875 0.8125
239 1 0.4375 0.6875 0.8125
303 1 0.5625 0.6875 0.8125
367 1 0.6875 0.6875 0.8125
431 1 0.8125 0.6875 0.8125
495 1 0.9375 0.6875 0.8125
55 1 0.0625 0.8125 0.8125
119 1 0.1875 0.8125 0.8125
183 1 0.3125 0.8125 0.8125
247 1 0.4375 0.8125 0.8125
311 1 0.5625 0.8125 0.8125
375 1 0.6875 0.8125 0.8125
439 1 0.8125 0.8125 0.8125
503 1 0.9375 0.8125 0.8125
63 1 0.0625 0.9375 0.8125
127 1 0.1875 0.9375 0.8125
191 1 0.3125 0.9375 0.8125
255 1 0.4375 0.9375 0.8125
319 1 0.5625 0.9375 0.8125
383 1 0.6875 0.9375 0.8125
447 1 0.8125 0.9375 0.8125
511 1 0.9375 0.9375 0.8125
8 1 0.0625 0.0625 0.9375
72 1 0.1875 0.0625 0.9375
136 1 0.3125 0.0625 0.9375
200 1 0.4375 0.0625 0.9375
264 1 0.5625 0.0625 0.9375
328 1 0.6875 0.0625 0.9375
392 1 0.8125 0.0625 0.9375
456 1 0.9375 0.0625 0.9375
16 1 0.0625 0.1875 0.9375
80 1 0.1875 0.1875 0.9375
144 1 0.3125 0.1875 0.9375
208 1 0.4375 0.1875 0.9375
272 1 0.5625 0.1875 0.9375
336 1 0.6875 0.1875 0.9375
400 1 0.8125 0.1875 0.9375
464 1 0.9375 0.1875 0.9375
24 1 0.0625 0.3125 0.9375
88 1 0.1875 0.3125 0.9375
152 1 0.3125 0.3125 0.9375
216 1 0.4375 0.3125 0.9375
280 1 0.5625 0.3125 0.9375
344 1 0.6875 0.3125 0.9375
408 1 0.8125 0.3125 0.9375
472 1 0.9375 0.3125 0.9375
32 1 0.0625 0.4375 0.9375
96 1 0.1875 0.4375 0.9375
160 1 0.3125 0.4375 0.9375
224 1 0.4375 0.4375 0.9375
288 1 0.5625 0.4375 0.9375
352 1 0.6875 0.4375 0.9375
416 1 0.8125 0.4375 0.9375
480 1 0.9375 0.4375 0.9375
40 1 0.0625 0.5625 0.9375
104 1 0.1875 0.5625 0.9375
168 1 0.3125 0.5625 0.9375
232 1 0.4375 0.5625 0.9375
296 1 0.5625 0.5625 0.9375
360 1 0.6875 0.5625 0.9375
424 1 0.8125 0.5625 0.9375
488 1 0.9375 0.5625 0.9375
48 1 0.0625 0.6875 0.9375
112 1 0.1875 0.6875 0.9375
176 1 0.3125 0.6875 0.9375
240 1 0.4375 0.6875 0.9375
304 1 0.5625 0.6875 0.9375
368 1 0.6875 0.6875 0.9375
432 1 0.8125 0.6875 0.9375
496 1 0.9375 0.6875 0.9375
56 1 0.0625 0.8125 0.9375
120 1 0.1875 0.8125 0.9375
184 1 0.3125 0.8125 0.9375
248 1 0.4375 0.8125 0.9375
312 1 0.5625 0.8125 0.9375
376 1 0.6875 0.8125 0.9375
440 1 0.8125 0.8125 0.9375
504 1 0.9375 0.8125 0.9375
64 1 0.0625 0.9375 0.9375
128 1 0.1875 0.9375 0.9375
192 1 0.3125 0.9375 0.9375
256 1 0.4375 0.9375 0.9375
320 1 0.5625 0.9375 0.9375
384 1 0.6875 0.9375 0.9375
448 1 0.8125 0.9375 0.9375
512 1 0.9375 0.9375 0.9375
ITEM: TIMESTEP
10000
ITEM: NUMBER OF ATOMS
512
ITEM: BOX BOUNDS pp pp pp
0.0000000000000000e+00 4.0000000000000000e+01
0.0000000000000000e+00 4.0000000000000000e+01
0.0000000000000000e+00 4.0000000000000000e+01
ITEM: ATOMS id type xs ys zs
384 1 0.082369 0.0165333 0.0611013
228 1 0.0648618 0.0438366 0.0131042
127 1 0.242329 0.0145411 0.0210581
315 1 0.294146 0.0136153 0.0372931
511 1 0.531394 0.0317238 0.0674977
499 1 0.117155 0.14724 0.0302076
358 1 0.455584 0.0856096 0.0332473
432 1 0.533026 0.0919175 0.0390638
380 1 0.00459268 0.174065 0.077236
322 1 0.336018 0.204405 0.0680188
367 1 0.462543 0.185689 0.0701095
434 1 0.775148 0.226403 0.0639912
273 1 0.0601481 0.254594 0.0681307
6 1 0.488554 0.279601 0.0079828
226 1 0.676939 0.264511 0.0828097
418 1 0.979434 0.299856 0.0291869
18 1 0.0175873 0.378018 0.0665178
5 1 0.177876 0.410456 0.0600391
335 1 0.295091 0.358286 0.0110231
477 1 0.403196 0.385887 0.0384945
53 1 0.413984 0.360831 0.00531809
345 1 0.0043782 0.457276 0.0324475
17 1 0.357293 0.466576 0.0156126
282 1 0.393861 0.475808 0.0238091
439 1 0.60664 0.416883 0.0668475
137 1 0.850978 0.464339 0.0312188
461 1 0.00788804 0.508888 0.0223433
22 1 0.10402 0.557896 0.0179383
105 1 0.255855 0.553618 0.0831603
330 1 0.468875 0.519132 0.00347555
414 1 0.59741 0.575929 0.0827783
219 1 0.80837 0.515875 0.0781361
62 1 0.00965624 0.584155 0.0173491
161 1 0.215112 0.6294 0.0040575
236 1 0.868591 0.632059 0.0302246
469 1 0.103844 0.667828 0.0605485
372 1 0.371089 0.689529 0.000267521
177 1 0.195361 0.771837 0.082933
420 1 0.185161 0.754625 0.0573445
504 1 0.208258 0.789475 0.0210912
446 1 0.520892 0.824677 0.0645014
463 1 0.0605724 0.888539 0.00957577
419 1 0.150249 0.91592 0.0577503
103 1 0.19449 0.904918 0.0299891
283 1 0.262559 0.91618 0.0735009
123 1 0.781039 0.869306 0.0166196
104 1 0.867755 0.883659 0.0605649
410 1 0.955772 0.95329 0.0819555
312 1 0.997003 0.0475781 0.133663
144 1 0.302766 0.0863642 0.15126
208 1 0.850033 0.164999 0.160118
313 1 0.451339 0.211813 0.133496
338 1 0.911498 0.223222 0.128114
14 1 0.0431414 0.294015 0.156277
135 1 0.0659046 0.290052 0.145362
458 1 0.1486 0.256152 0.151563
266 1 0.77863 0.29374 0.086923
259 1 0.956079 0.291136 0.0881784
96 1 0.267195 0.333429 0.141444
153 1 0.486012 0.346915 0.165804
475 1 0.877113 0.343959 0.1177
438 1 0.217684 0.569568 0.15735
348 1 0.402933 0.519129 0.111385
214 1 0.361623 0.557215 0.148928
198 1 0.0407138 0.613063 0.098118
238 1 0.871708 0.589698 0.112557
134 1 0.910549 0.631295 0.103384
231 1 0.936108 0.665134 0.162975
334 1 0.370472 0.676962 0.131742
399 1 0.516157 0.692146 0.0972232
184 1 0.572301 0.667103 0.105682
473 1 0.659093 0.747543 0.10918
397 1 0.875231 0.712392 0.15643
389 1 0.278961 0.79088 0.116789
435 1 0.724953 0.800314 0.102176
377 1 0.686477 0.766296 0.165583
421 1 0.0802862 0.872017 0.156185
388 1 0.724439 0.907073 0.113198
4 1 0.923469 0.896104 0.132595
196 1 0.945361 0.874012 0.0989479
314 1 0.204837 0.926737 0.0850489
81 1 0.30113 0.946137 0.10794
209 1 0.411278 0.95891 0.0837906
276 1 0.544715 0.978245 0.163634
176 1 0.592199 0.972287 0.154109
89 1 0.71179 0.92279 0.142253
310 1 0.128371 0.0817566 0.193207
343 1 0.111199 0.0719408 0.176198
204 1 0.175683 0.0411338 0.247832
501 1 0.558966 0.00206391 0.230852
385 1 0.586623 0.0808406 0.184137
20 1 0.702208 0.0650981 0.233962
309 1 0.840195 0.00464982 0.19648
109 1 0.92258 0.0440063 0.211804
340 1 0.0619579 0.118871 0.210749
339 1 0.0814836 0.144429 0.182268
249 1 0.29184 0.153335 0.213274
373 1 0.339497 0.164334 0.238968
452 1 0.43573 0.133214 0.249995
302 1 0.986283 0.118653 0.208458
295 1 0.976829 0.110005 0.180226
492 1 0.0317918 0.226879 0.205264
337 1 0.175345 0.218259 0.22423
248 1 0.304571 0.176813 0.182621
8 1 0.279895 0.183188 0.169711
46 1 0.290189 0.199571 0.187891
406 1 0.38478 0.179755 0.210979
212 1 0.402669 0.225545 0.220967
97 1 0.537439 0.198799 0.244458
56 1 0.778386 0.207234 0.175209
369 1 0.843986 0.187156 0.19914
329 1 0.0863402 0.294614 0.220717
207 1 0.378445 0.322048 0.175259
382 1 0.374779 0.282408 0.237592
392 1 0.425036 0.255811 0.228425
493 1 0.815192 0.28093 0.239422
140 1 0.98493 0.252132 0.227468
116 1 0.104064 0.456035 0.219733
364 1 0.795677 0.418321 0.217994
223 1 0.902898 0.432145 0.239326
43 1 0.880771 0.432621 0.248405
139 1 0.303668 0.561476 0.236382
158 1 0.269494 0.572211 0.236022
28 1 0.326579 0.573401 0.230974
297 1 0.336439 0.533627 0.241186
405 1 0.598934 0.548132 0.186094
483 1 0.790563 0.555856 0.200459
24 1 0.804205 0.523181 0.211172
155 1 0.909283 0.530004 0.244373
467 1 0.0804215 0.599411 0.21828
117 1 0.118382 0.611028 0.194619
255 1 0.424183 0.662511 0.221789
114 1 0.607613 0.640601 0.187779
433 1 0.660863 0.608955 0.179839
287 1 0.962507 0.644107 0.202069
474 1 0.957776 0.616403 0.238909
417 1 0.0358085 0.675382 0.220847
286 1 0.944823 0.689997 0.216971
45 1 0.364853 0.754567 0.180381
30 1 0.511887 0.775988 0.209814
220 1 0.621534 0.815555 0.202553
83 1 0.787249 0.848174 0.186028
428 1 0.660154 0.995046 0.235151
247 1 0.615103 0.932496 0.169664
497 1 0.713921 0.929224 0.229348
168 1 0.736793 0.928088 0.203687
460 1 0.150671 0.0673761 0.32721
494 1 0.38101 0.0744446 0.289347
77 1 0.132969 0.165128 0.265401
346 1 0.0995598 0.166506 0.301714
192 1 0.351512 0.0907481 0.264763
356 1 0.901659 0.144803 0.30548
352 1 0.0648639 0.212065 0.328153
121 1 0.115903 0.239256 0.305178
11 1 0.215729 0.215639 0.252196
240 1 0.257372 0.187021 0.286942
495 1 0.355044 0.214584 0.330454
178 1 0.484324 0.172565 0.315614
133 1 0.470313 0.211907 0.260299
187 1 0.199778 0.317612 0.257577
66 1 0.896381 0.3233 0.322484
264 1 0.849252 0.327186 0.305518
448 1 0.240856 0.393282 0.293445
447 1 0.209076 0.408474 0.317505
38 1 0.356458 0.347776 0.314989
31 1 0.952069 0.403296 0.295043
82 1 0.591839 0.493396 0.266652
215 1 0.615725 0.429119 0.303603
498 1 0.450835 0.559206 0.331101
206 1 0.882582 0.506807 0.251279
510 1 0.81391 0.597185 0.2872
321 1 0.0987965 0.673161 0.271742
361 1 0.391279 0.668661 0.329031
95 1 0.546663 0.716994 0.254216
40 1 0.685138 0.673828 0.321321
342 1 0.455926 0.781105 0.32997
437 1 0.582169 0.766247 0.314062
481 1 0.543072 0.791077 0.255436
34 1 0.831862 0.771899 0.311555
363 1 0.124086 0.857105 0.300321
199 1 0.179936 0.842418 0.26043
316 1 0.617137 0.912281 0.329789
119 1 0.955 0.87671 0.307031
243 1 0.0757343 0.925225 0.263457
307 1 0.10852 0.968972 0.282376
179 1 0.599038 0.984525 0.290565
27 1 0.898543 0.9503 0.313432
175 1 0.0705042 0.0619713 0.359261
29 1 0.141961 0.0333284 0.335882
482 1 0.773144 0.0104642 0.41517
468 1 0.155227 0.140725 0.379126
272 1 0.520124 0.156084 0.360533
230 1 0.672395 0.141117 0.414515
462 1 0.852756 0.141617 0.411577
227 1 0.920942 0.108369 0.37309
90 1 0.0466048 0.201335 0.391166
328 1 0.0901311 0.169023 0.409503
426 1 0.499842 0.229856 0.383848
281 1 0.830511 0.247699 0.369162
58 1 0.986176 0.224582 0.364068
347 1 0.108161 0.305037 0.35105
408 1 0.388069 0.253248 0.395761
500 1 0.716903 0.267201 0.355339
233 1 0.86654 0.280433 0.33821
154 1 0.157707 0.363374 0.387937
430 1 0.200015 0.349445 0.339825
296 1 0.466679 0.366773 0.340825
441 1 0.448629 0.343702 0.399867
7 1 0.886541 0.391148 0.414012
181 1 0.968164 0.396074 0.342055
390 1 0.134245 0.490429 0.408439
239 1 0.145284 0.473527 0.390429
91 1 0.303859 0.436386 0.416296
39 1 0.088882 0.544624 0.335395
509 1 0.361223 0.549765 0.395325
224 1 0.802495 0.551484 0.403145
246 1 0.842212 0.572043 0.366513
194 1 0.928323 0.519652 0.372888
211 1 0.995417 0.515662 0.384121
23 1 0.2709 0.657083 0.338328
402 1 0.27643 0.607995 0.413205
99 1 0.364147 0.655546 0.409147
2 1 0.910999 0.621338 0.404944
260 1 0.311049 0.705245 0.409983
472 1 0.923227 0.691306 0.403544
190 1 0.973666 0.735782 0.414805
429 1 0.439515 0.796273 0.347982
245 1 0.556627 0.754807 0.35039
100 1 0.729686 0.815943 0.388266
61 1 0.284743 0.886193 0.344169
201 1 0.56311 0.860011 0.395925
210 1 0.612178 0.888404 0.369515
456 1 0.701305 0.875122 0.353762
299 1 0.823771 0.895086 0.343876
142 1 0.199319 0.966471 0.391823
52 1 0.703856 0.99179 0.387642
336 1 0.352926 0.0238437 0.430164
293 1 0.10923 0.130188 0.475927
138 1 0.210501 0.0846181 0.438078
396 1 0.386257 0.165366 0.471861
33 1 0.691731 0.132815 0.498735
261 1 0.138004 0.229102 0.453135
326 1 0.19207 0.238164 0.447969
26 1 0.338381 0.169403 0.460691
404 1 0.621076 0.198595 0.442897
341 1 0.167568 0.315979 0.468495
152 1 0.297245 0.296046 0.454859
42 1 0.582443 0.261428 0.498114
193 1 0.0311305 0.384998 0.493196
47 1 0.431121 0.33771 0.442752
279 1 0.132565 0.449641 0.421363
67 1 0.783632 0.469982 0.455902
80 1 0.183 0.519449 0.422481
488 1 0.232375 0.576491 0.440357
365 1 0.522646 0.516593 0.47003
443 1 0.936224 0.522421 0.43371
357 1 0.301216 0.591223 0.420225
36 1 0.85428 0.590782 0.458493
395 1 0.0262093 0.705097 0.416943
413 1 0.187676 0.676504 0.422147
331 1 0.327315 0.714294 0.478154
235 1 0.403128 0.690707 0.47208
415 1 0.424751 0.749871 0.434093
143 1 0.426902 0.692758 0.418518
125 1 0.00854851 0.763157 0.427473
141 1 0.751022 0.788423 0.438027
470 1 0.768697 0.778114 0.426524
79 1 0.770839 0.754274 0.475937
256 1 0.858393 0.786448 0.480597
94 1 0.171604 0.840451 0.438132
455 1 0.255439 0.906598 0.492544
171 1 0.573332 0.870176 0.453901
465 1 0.56466 0.847791 0.443999
298 1 0.699448 0.853793 0.436506
216 1 0.116518 0.988395 0.451922
195 1 0.157446 0.929199 0.454981
502 1 0.358329 0.979467 0.45653
305 1 0.391754 0.965031 0.474972
398 1 0.727792 0.982291 0.49642
269 1 0.829916 0.956202 0.492015
252 1 0.835501 0.92617 0.444794
285 1 0.0579539 0.0284329 0.570975
471 1 0.166912 0.0292805 0.582855
108 1 0.475054 0.0772372 0.581085
350 1 0.452552 0.0204841 0.581331
368 1 0.548899 0.0255831 0.568101
148 1 0.650816 0.0680285 0.56385
376 1 0.715159 0.0509755 0.531742
449 1 0.018545 0.0857549 0.545006
111 1 0.297766 0.135025 0.579627
263 1 0.424685 0.104119 0.551171
291 1 0.820491 0.110253 0.537762
422 1 0.0919485 0.190979 0.551996
444 1 0.796529 0.225468 0.524777
191 1 0.0642537 0.309618 0.582523
459 1 0.366325 0.313202 0.509032
362 1 0.41748 0.257713 0.541954
457 1 0.707148 0.304738 0.528352
423 1 0.459875 0.397241 0.52697
464 1 0.522031 0.385048 0.576145
508 1 0.675326 0.34773 0.523252
151 1 0.678803 0.406596 0.534296
401 1 0.796337 0.396487 0.56495
484 1 0.436789 0.477125 0.572126
202 1 0.923823 0.43165 0.536033
48 1 0.289267 0.52766 0.510962
257 1 0.297366 0.51124 0.557418
311 1 0.778922 0.58262 0.552183
64 1 0.756728 0.531669 0.513503
409 1 0.0695335 0.656988 0.570575
400 1 0.135057 0.590539 0.581161
489 1 0.23897 0.638109 0.538432
102 1 0.281869 0.640433 0.552972
274 1 0.899289 0.611842 0.546719
241 1 0.328031 0.735119 0.544847
149 1 0.39109 0.705142 0.572186
324 1 0.507054 0.724427 0.554862
374 1 0.230541 0.754758 0.570332
130 1 0.204323 0.812878 0.580302
186 1 0.642856 0.828077 0.537456
132 1 0.499005 0.848551 0.534796
265 1 0.727487 0.848283 0.560829
87 1 0.245444 0.917089 0.516923
205 1 0.434192 0.998231 0.50929
359 1 0.533382 0.970573 0.572944
253 1 0.746905 0.969884 0.5257
476 1 0.788746 0.962934 0.520513
182 1 0.299137 0.0507479 0.613509
277 1 0.456276 0.064399 0.639034
169 1 0.460159 0.0331443 0.629888
354 1 0.702287 0.0699716 0.58841
308 1 0.492825 0.1642 0.59994
250 1 0.0672275 0.2185 0.585531
85 1 0.220195 0.194789 0.615999
32 1 0.387993 0.215743 0.6583
268 1 0.52705 0.226929 0.640265
218 1 0.905487 0.193529 0.665554
3 1 0.258277 0.326933 0.654445
183 1 0.45102 0.399888 0.623098
371 1 0.808291 0.373003 0.639333
217 1 0.92123 0.346332 0.649849
366 1 0.560909 0.464751 0.606048
506 1 0.593401 0.461258 0.58879
403 1 0.863509 0.416708 0.656339
381 1 0.95595 0.49376 0.594776
383 1 0.0504441 0.513453 0.596936
25 1 0.260919 0.522992 0.640292
386 1 0.596777 0.527556 0.62726
136 1 0.748748 0.515372 0.619499
189 1 0.783822 0.507872 0.613322
112 1 0.0529625 0.645137 0.648511
170 1 0.572508 0.656822 0.618917
294 1 0.891615 0.596246 0.662087
450 1 0.93049 0.646471 0.628647
370 1 0.739516 0.718061 0.645486
71 1 0.850729 0.722247 0.659729
487 1 0.421219 0.774119 0.59427
174 1 0.981459 0.878343 0.617721
60 1 0.126688 0.942951 0.662215
221 1 0.611783 0.959399 0.613688
185 1 0.259354 0.0470415 0.733706
88 1 0.30632 0.0317558 0.694917
301 1 0.382013 0.0541862 0.709001
319 1 0.515016 0.0750178 0.731363
306 1 0.775676 0.107801 0.719052
72 1 0.795805 0.0980363 0.742012
57 1 0.035115 0.184395 0.709138
479 1 0.0633258 0.206197 0.747109
44 1 0.310714 0.196071 0.706769
262 1 0.466616 0.180302 0.689966
124 1 0.510947 0.202653 0.72984
165 1 0.836227 0.24607 0.726344
229 1 0.415893 0.290132 0.747541
225 1 0.476118 0.277529 0.676466
278 1 0.524193 0.25541 0.700056
160 1 0.279356 0.333344 0.672514
411 1 0.303795 0.415248 0.737583
74 1 0.491135 0.432948 0.710359
172 1 0.3685 0.536195 0.672846
512 1 0.384057 0.645843 0.723559
327 1 0.358793 0.603042 0.6722
454 1 0.34022 0.729737 0.678845
333 1 0.566401 0.722277 0.681215
55 1 0.61302 0.745279 0.67094
129 1 0.511902 0.783742 0.716022
244 1 0.360466 0.910031 0.684124
107 1 0.402149 0.889911 0.742067
49 1 0.821657 0.869356 0.736251
10 1 0.0647682 0.91768 0.740588
431 1 0.370453 0.985562 0.715784
164 1 0.0206008 0.106144 0.760029
69 1 0.242044 0.0934284 0.801628
35 1 0.185372 0.170872 0.804239
478 1 0.168999 0.317847 0.753335
163 1 0.268412 0.264428 0.802164
391 1 0.70812 0.269661 0.785945
258 1 0.0764295 0.358253 0.790418
84 1 0.00299572 0.35272 0.780438
304 1 0.38111 0.384895 0.766196
453 1 0.469479 0.395317 0.768508
407 1 0.636516 0.393474 0.778474
41 1 0.724114 0.34726 0.754543
200 1 0.80039 0.365637 0.801807
162 1 0.209388 0.459384 0.76309
180 1 0.284043 0.435784 0.797564
271 1 0.395181 0.437351 0.794391
188 1 0.544301 0.483613 0.790298
242 1 0.960821 0.4217 0.765405
126 1 0.927017 0.41772 0.753621
496 1 0.0625122 0.506106 0.770114
118 1 0.0717881 0.579654 0.828669
232 1 0.158057 0.51533 0.783802
203 1 0.144231 0.566418 0.830602
320 1 0.795588 0.53474 0.76713
98 1 0.937228 0.566728 0.830892
416 1 0.194553 0.655033 0.776596
70 1 0.342534 0.588159 0.784625
280 1 0.388419 0.622435 0.790544
76 1 0.0394769 0.719265 0.751897
270 1 0.237956 0.739101 0.812267
412 1 0.245073 0.668263 0.803234
16 1 0.552926 0.718396 0.754505
122 1 0.942261 0.742182 0.820504
317 1 0.0645903 0.79154 0.75495
63 1 0.0964819 0.786474 0.750529
68 1 0.470855 0.830812 0.769426
110 1 0.625799 0.751196 0.812003
37 1 0.642641 0.75247 0.795354
427 1 0.856461 0.788341 0.75361
115 1 0.838175 0.772602 0.827717
505 1 0.819796 0.900132 0.822696
13 1 0.898266 0.897818 0.788358
19 1 0.179493 0.937266 0.76713
213 1 0.626741 0.978602 0.803251
12 1 0.7657 0.927362 0.802038
197 1 0.206596 0.0507726 0.896651
351 1 0.198077 0.0170626 0.849601
486 1 0.498539 0.0723608 0.89868
254 1 0.124538 0.122087 0.876389
86 1 0.188118 0.100067 0.885909
156 1 0.0358379 0.178001 0.909021
344 1 0.150962 0.198506 0.907104
146 1 0.256721 0.218004 0.914981
303 1 0.775324 0.243633 0.856379
267 1 0.80279 0.174968 0.890419
318 1 0.917911 0.179227 0.901677
284 1 0.143867 0.254951 0.867786
360 1 0.899923 0.325079 0.898727
379 1 0.0181269 0.383802 0.886478
65 1 0.0738142 0.340466 0.889158
113 1 0.401739 0.39263 0.885921
332 1 0.979652 0.390396 0.850775
349 1 0.129156 0.47158 0.89505
353 1 0.181016 0.449865 0.909706
101 1 0.32204 0.471985 0.866429
234 1 0.62597 0.498475 0.910016
375 1 0.707235 0.450954 0.886256
222 1 0.0307194 0.574452 0.892556
275 1 0.188568 0.519943 0.912022
466 1 0.103685 0.625106 0.842449
292 1 0.466095 0.636162 0.840706
54 1 0.552389 0.595257 0.877277
445 1 0.341347 0.670698 0.88107
73 1 0.506068 0.744063 0.850603
451 1 0.866819 0.695903 0.837643
490 1 0.127386 0.793223 0.881568
378 1 0.404663 0.765856 0.874613
59 1 0.862864 0.817554 0.91534
106 1 0.881822 0.902308 0.835098
1 1 0.12097 0.989836 0.860912
289 1 0.151297 0.999828 0.86002
93 1 0.328327 0.954441 0.895019
157 1 0.756625 0.93854 0.904624
78 1 0.950963 0.9741 0.913458
485 1 0.357799 0.17967 0.951347
290 1 0.593185 0.180792 0.924248
288 1 0.999458 0.193292 0.952195
9 1 0.243173 0.393263 0.938137
387 1 0.294995 0.335893 0.933078
51 1 0.627172 0.401077 0.979411
167 1 0.899157 0.339008 0.932514
128 1 0.067731 0.471823 0.996421