ITEM: TIMESTEP
0
ITEM: NUMBER OF ATOMS
512
ITEM: BOX BOUNDS pp pp pp
0.0000000000000000e+00 4.0000000000000000e+01
0.0000000000000000e+00 4.0000000000000000e+01
0.0000000000000000e+00 4.0000000000000000e+01
ITEM: ATOMS id type xs ys zs
468 1 0.0816738 0.00866567 0.0276704
97 1 0.318525 0.0799836 0.0677657
502 1 0.335953 0.00985037 0.0211576
101 1 0.932074 0.0384705 0.0709288
68 1 0.926149 0.0701379 0.0286542
25 1 0.189771 0.13728 0.0656608
449 1 0.397277 0.117062 0.0772525
20 1 0.591539 0.133815 0.0546804
464 1 0.707725 0.16005 0.0602343
312 1 0.0858633 0.210132 0.0555503
367 1 0.620387 0.225038 0.0709348
106 1 0.911851 0.17508 0.017633
370 1 0.895818 0.236443 0.000303034
295 1 0.178635 0.259642 0.0369399
147 1 0.213864 0.277485 0.0780505
165 1 0.821696 0.296332 0.0181248
174 1 0.993645 0.300948 0.0763143
158 1 0.382064 0.394538 0.00949691
192 1 0.806178 0.405108 0.0662743
417 1 0.987035 0.339312 0.0309176
86 1 0.0868538 0.442911 0.0332844
124 1 0.637978 0.440649 0.0556702
196 1 0.709746 0.491431 0.0562619
389 1 0.689379 0.482507 0.0449313
215 1 0.0575624 0.513012 0.055022
313 1 0.237188 0.5387 0.0781908
229 1 0.634102 0.542808 0.0199155
451 1 0.776579 0.519846 0.0213085
259 1 0.0594357 0.647841 0.0530286
96 1 0.012479 0.594374 0.0623732
333 1 0.274164 0.642337 0.00260479
300 1 0.476865 0.590101 0.0398168
262 1 0.837145 0.594193 0.0352258
37 1 0.929721 0.644908 0.0100649
338 1 0.373635 0.697991 0.0588388
179 1 0.475533 0.681522 0.0727801
328 1 0.918417 0.671279 0.0323581
359 1 0.300224 0.791601 0.0068123
159 1 0.670602 0.82474 0.00131927
129 1 0.813046 0.787626 0.0499537
5 1 0.834177 0.785463 0.0355535
219 1 0.0552667 0.881193 0.0205756
74 1 0.0396344 0.857899 0.0454719
60 1 0.213141 0.872916 0.0172988
11 1 0.3225 0.87035 0.0471386
169 1 0.276504 0.86842 0.0236012
306 1 0.70043 0.891149 0.0247147
204 1 0.955089 0.893035 0.0300946
71 1 0.552387 0.962278 0.00155287
220 1 0.635334 0.959613 0.0216389
237 1 0.726788 0.938929 0.0323369
470 1 0.559095 0.0169069 0.0849794
154 1 0.203331 0.137825 0.0858029
246 1 0.297343 0.0994864 0.129337
383 1 0.250248 0.163336 0.0911008
467 1 0.647634 0.0960485 0.105713
445 1 0.894699 0.153923 0.143009
222 1 0.991843 0.123126 0.090414
132 1 0.741772 0.223323 0.110367
77 1 0.63141 0.262083 0.102397
33 1 0.0385419 0.392039 0.153205
329 1 0.0346298 0.396728 0.129044
341 1 0.449884 0.354064 0.134547
76 1 0.622936 0.403899 0.12223
270 1 0.0114318 0.485748 0.124878
88 1 0.0430156 0.444731 0.151507
161 1 0.216069 0.463757 0.128546
273 1 0.271672 0.49255 0.138989
298 1 0.584463 0.469321 0.0940755
444 1 0.987981 0.49587 0.0957249
48 1 0.272387 0.574148 0.120618
340 1 0.456347 0.530983 0.100742
1 1 0.525755 0.502665 0.154815
75 1 0.0199934 0.59561 0.0859767
400 1 0.0456795 0.632838 0.156764
56 1 0.185258 0.604559 0.0943276
51 1 0.358262 0.630979 0.0971419
65 1 0.940385 0.654509 0.163604
117 1 0.750503 0.745031 0.108416
466 1 0.637686 0.822735 0.147488
476 1 0.73582 0.801931 0.14961
83 1 0.0657745 0.914753 0.10573
82 1 0.158445 0.85511 0.0882959
139 1 0.289657 0.850928 0.089554
282 1 0.757224 0.836944 0.103889
19 1 0.775484 0.877718 0.0965905
372 1 0.922368 0.898514 0.164725
409 1 0.989638 0.877659 0.158283
447 1 0.135286 0.968001 0.0988581
189 1 0.0934516 0.926413 0.148586
63 1 0.258065 0.977802 0.142038
133 1 0.679694 0.927253 0.139949
452 1 0.222538 0.0026605 0.238499
448 1 0.350654 0.02354 0.200114
311 1 0.424924 0.0668883 0.212959
430 1 0.544341 0.0297866 0.224951
478 1 0.805374 0.0133531 0.24719
242 1 0.829281 0.0581269 0.197968
268 1 0.0102092 0.121729 0.239957
495 1 0.154472 0.129817 0.173749
457 1 0.289764 0.124982 0.225298
9 1 0.456784 0.134757 0.205151
277 1 0.440093 0.165502 0.191022
358 1 0.637459 0.185725 0.223463
87 1 0.77807 0.207857 0.220898
120 1 0.148638 0.315812 0.194712
245 1 0.394294 0.325225 0.168022
503 1 0.545377 0.284062 0.235149
217 1 0.85242 0.306391 0.244224
27 1 0.860708 0.291082 0.226105
195 1 0.863691 0.268218 0.216599
54 1 0.114514 0.399315 0.236733
256 1 0.507232 0.416515 0.208552
308 1 0.414812 0.419371 0.24396
16 1 0.335425 0.464707 0.189992
182 1 0.556788 0.464612 0.203973
202 1 0.810423 0.472938 0.239443
160 1 0.808346 0.444577 0.241651
368 1 0.999312 0.484286 0.18938
108 1 0.242346 0.527183 0.202277
38 1 0.220846 0.640471 0.244331
419 1 0.378917 0.645483 0.209605
290 1 0.566868 0.637141 0.242118
310 1 0.851746 0.633017 0.225141
437 1 0.941212 0.615772 0.242164
130 1 0.0861322 0.696629 0.243616
424 1 0.446754 0.697483 0.181543
142 1 0.635775 0.779985 0.196326
327 1 0.889042 0.761626 0.17641
210 1 0.697757 0.841609 0.221655
61 1 0.792513 0.873541 0.168015
207 1 0.769021 0.872955 0.171843
40 1 0.0647897 0.02555 0.267516
137 1 0.0872398 0.0283991 0.276
69 1 0.843551 0.153518 0.25827
360 1 0.288022 0.212295 0.258247
392 1 0.398134 0.199542 0.261681
94 1 0.56532 0.202554 0.323329
490 1 0.707362 0.244312 0.322472
35 1 0.88604 0.202598 0.291379
471 1 0.896531 0.245109 0.254558
325 1 0.99398 0.223404 0.253288
257 1 0.758072 0.250514 0.315179
80 1 0.839167 0.258235 0.326589
143 1 0.0870324 0.369173 0.330507
28 1 0.291177 0.335396 0.299239
107 1 0.277372 0.354269 0.305188
339 1 0.411731 0.345488 0.304539
422 1 0.529839 0.337641 0.258397
53 1 0.871271 0.337717 0.282131
302 1 0.868513 0.366734 0.280994
334 1 0.8834 0.37514 0.29932
373 1 0.224474 0.49974 0.261225
119 1 0.529644 0.427071 0.257963
446 1 0.670427 0.448497 0.288024
356 1 0.821925 0.487869 0.317184
285 1 0.149092 0.542749 0.266897
47 1 0.708333 0.582206 0.285223
113 1 0.0962457 0.60842 0.25642
274 1 0.700396 0.642475 0.306377
496 1 0.915639 0.61362 0.320928
475 1 0.567704 0.734446 0.312003
391 1 0.021911 0.799746 0.256983
395 1 0.29632 0.754537 0.305998
305 1 0.654732 0.784211 0.299704
346 1 0.684592 0.815934 0.281341
276 1 0.481722 0.888975 0.289758
438 1 0.146372 0.950186 0.308558
228 1 0.18407 0.976693 0.279066
233 1 0.41111 0.957613 0.265147
102 1 0.690027 0.981058 0.264007
230 1 0.352049 0.0368275 0.375888
407 1 0.538441 0.0351207 0.380824
365 1 0.958921 0.0198612 0.409568
435 1 0.228564 0.121666 0.368359
218 1 0.707057 0.137041 0.402772
123 1 0.980296 0.147247 0.407564
115 1 0.052653 0.244129 0.347061
507 1 0.102314 0.247815 0.357492
482 1 0.549081 0.200246 0.341832
319 1 0.60803 0.243357 0.388549
307 1 0.059381 0.279759 0.337843
321 1 0.379891 0.2521 0.413583
294 1 0.482309 0.331034 0.349517
12 1 0.526472 0.288397 0.414804
121 1 0.669277 0.257045 0.373418
89 1 0.732536 0.305658 0.376363
462 1 0.37898 0.457079 0.355717
188 1 0.489959 0.418748 0.358688
34 1 0.518554 0.497256 0.379798
15 1 0.519257 0.578827 0.352187
387 1 0.697369 0.552152 0.350737
241 1 0.696943 0.534062 0.367894
408 1 0.762207 0.560434 0.356993
382 1 0.836361 0.524617 0.409524
350 1 0.211318 0.638485 0.409432
62 1 0.278543 0.612557 0.383475
6 1 0.274517 0.685719 0.404831
499 1 0.323201 0.726778 0.380996
361 1 0.965283 0.733045 0.370719
410 1 0.0877424 0.797228 0.374696
206 1 0.264652 0.801876 0.377908
354 1 0.403119 0.830533 0.386046
272 1 0.611144 0.784533 0.397011
443 1 0.833456 0.761695 0.385455
98 1 0.235342 0.898489 0.365646
393 1 0.176642 0.847739 0.395551
14 1 0.399964 0.883999 0.415214
318 1 0.564842 0.909191 0.37498
347 1 0.816612 0.855738 0.338565
260 1 0.862778 0.891184 0.373329
167 1 0.224825 0.918878 0.396541
508 1 0.275252 0.998592 0.366432
366 1 0.754592 0.943985 0.385618
244 1 0.955182 0.942702 0.363418
440 1 0.133716 0.0670178 0.483016
420 1 0.480578 0.0102457 0.465735
480 1 0.705792 0.0747069 0.42037
332 1 0.640751 0.152482 0.499746
384 1 0.668296 0.0916402 0.456553
279 1 0.369404 0.186174 0.42261
412 1 0.954306 0.187906 0.470878
251 1 0.945839 0.22811 0.45364
454 1 0.207567 0.303669 0.478184
348 1 0.334631 0.29728 0.435767
79 1 0.579558 0.302678 0.463219
322 1 0.526132 0.304025 0.434165
44 1 0.727703 0.300255 0.47158
8 1 0.784744 0.319864 0.49491
264 1 0.109306 0.374646 0.470213
483 1 0.530078 0.366724 0.43891
190 1 0.897056 0.35419 0.457251
374 1 0.106882 0.437342 0.444478
385 1 0.655224 0.470499 0.495922
263 1 0.775457 0.485903 0.49824
433 1 0.946705 0.453323 0.447908
140 1 0.323784 0.532533 0.49072
205 1 0.346566 0.539512 0.483347
278 1 0.0947608 0.649407 0.498268
73 1 0.206952 0.599705 0.487529
342 1 0.69084 0.636097 0.485642
78 1 0.717269 0.593505 0.484113
261 1 0.858735 0.619734 0.465203
414 1 0.937418 0.604438 0.49093
173 1 0.488389 0.737598 0.48362
353 1 0.635483 0.681871 0.458227
337 1 0.988467 0.742317 0.44886
281 1 0.0228933 0.812003 0.495557
505 1 0.378935 0.762172 0.459629
13 1 0.594899 0.814476 0.438717
24 1 0.194857 0.902819 0.479322
284 1 0.306781 0.833475 0.44469
376 1 0.351645 0.84113 0.459514
330 1 0.657005 0.88384 0.485973
21 1 0.817993 0.898832 0.4858
85 1 0.0498465 0.972254 0.445384
90 1 0.366993 0.999629 0.488217
162 1 0.561895 0.963388 0.431572
472 1 0.800411 0.993368 0.451626
500 1 0.147306 0.0335083 0.531201
477 1 0.165767 0.0251165 0.517178
427 1 0.231937 0.0292891 0.536418
481 1 0.724939 5.8968e-06 0.54723
357 1 0.139598 0.0864835 0.571069
55 1 0.498664 0.147606 0.579132
265 1 0.636008 0.139577 0.520569
431 1 0.714395 0.129016 0.555285
379 1 0.744799 0.116523 0.514689
31 1 0.821486 0.157606 0.553105
52 1 0.988949 0.0945994 0.529227
187 1 0.95411 0.147347 0.504941
152 1 0.00493407 0.209913 0.563559
315 1 0.212854 0.245527 0.562082
146 1 0.737569 0.205688 0.574876
64 1 0.0503353 0.280519 0.560004
144 1 0.0815851 0.312307 0.510597
460 1 0.0902929 0.304471 0.582343
191 1 0.595196 0.278472 0.505238
235 1 0.780688 0.333245 0.565991
258 1 0.484797 0.364712 0.575015
203 1 0.604947 0.342754 0.57323
465 1 0.598934 0.397085 0.531269
93 1 0.919005 0.393993 0.541557
175 1 0.0326782 0.451809 0.580843
164 1 0.10849 0.488444 0.572608
324 1 0.407258 0.445589 0.565561
441 1 0.76453 0.484805 0.546198
227 1 0.779279 0.475918 0.528306
236 1 0.3753 0.519201 0.519081
345 1 0.425453 0.560221 0.503607
32 1 0.640497 0.573627 0.54751
46 1 0.706683 0.561616 0.56687
58 1 0.819205 0.558972 0.505886
50 1 0.850927 0.550753 0.550468
136 1 0.83931 0.535212 0.567952
363 1 0.387072 0.620778 0.520042
30 1 0.534669 0.624382 0.558658
352 1 0.987181 0.612763 0.570295
428 1 0.039157 0.731844 0.500257
453 1 0.242427 0.712854 0.521478
2 1 0.280896 0.705224 0.581691
442 1 0.60168 0.746595 0.507644
209 1 0.633915 0.674244 0.578524
39 1 0.0571099 0.79525 0.548208
458 1 0.499876 0.818317 0.541561
92 1 0.437113 0.825242 0.545788
292 1 0.00457513 0.862001 0.521299
301 1 0.337667 0.911522 0.549764
293 1 0.00230613 0.999279 0.538441
267 1 0.214683 0.922015 0.525202
200 1 0.280303 0.955311 0.523895
461 1 0.329716 0.987478 0.564687
388 1 0.619908 0.942692 0.532053
289 1 0.73327 0.944404 0.554835
239 1 0.142267 0.0423406 0.638054
122 1 0.599058 0.116298 0.619137
380 1 0.599468 0.177944 0.626575
238 1 0.833478 0.190961 0.61191
166 1 0.54594 0.277172 0.663045
331 1 0.615403 0.327651 0.591292
3 1 0.641268 0.297827 0.591427
23 1 0.147029 0.35503 0.627973
456 1 0.18513 0.39686 0.659661
426 1 0.605925 0.403985 0.592613
168 1 0.908011 0.367167 0.594053
439 1 0.911814 0.342811 0.625023
91 1 0.449803 0.489315 0.585529
221 1 0.4702 0.42556 0.630468
240 1 0.593924 0.466678 0.642052
287 1 0.0283119 0.547921 0.600921
145 1 0.0240657 0.556048 0.653491
488 1 0.316782 0.575261 0.635546
421 1 0.320647 0.581834 0.611723
271 1 0.559981 0.561247 0.662048
512 1 0.321317 0.598978 0.628793
386 1 0.980983 0.619621 0.661973
184 1 0.993841 0.600113 0.590717
415 1 0.651906 0.678862 0.642423
402 1 0.684911 0.693617 0.611379
266 1 0.827176 0.68457 0.64308
95 1 0.492521 0.807155 0.638039
185 1 0.547407 0.798623 0.586521
156 1 0.525463 0.807677 0.59146
211 1 0.593526 0.76714 0.644423
429 1 0.0580087 0.909746 0.594407
405 1 0.0575089 0.89499 0.614442
134 1 0.0254902 0.875737 0.647419
487 1 0.26582 0.870058 0.66403
416 1 0.412508 0.839993 0.590586
336 1 0.609248 0.95565 0.635229
316 1 0.720123 0.967213 0.632239
42 1 0.261712 0.0337354 0.738498
57 1 0.428236 0.0693642 0.694303
198 1 0.629478 0.00268273 0.710392
141 1 0.585347 0.00318102 0.701819
247 1 0.845425 0.0526099 0.735132
297 1 0.876047 0.0822446 0.688654
49 1 0.00724949 0.10706 0.690114
253 1 0.271469 0.13468 0.670225
413 1 0.96798 0.114963 0.70479
498 1 0.015805 0.223721 0.671342
138 1 0.117672 0.181428 0.72347
474 1 0.219617 0.210593 0.667594
67 1 0.42786 0.186079 0.740364
252 1 0.510343 0.229636 0.668378
390 1 0.629888 0.189976 0.727442
103 1 0.98009 0.32342 0.721369
377 1 0.236703 0.357329 0.744524
232 1 0.21697 0.40342 0.718645
296 1 0.440617 0.360842 0.690899
375 1 0.134772 0.424077 0.713446
181 1 0.420982 0.425627 0.709573
208 1 0.719516 0.5345 0.722261
250 1 0.670541 0.584175 0.690324
326 1 0.669533 0.624031 0.702155
151 1 0.891099 0.650382 0.701761
291 1 0.895522 0.649456 0.676989
125 1 0.889043 0.671106 0.687751
70 1 0.948696 0.684492 0.748942
381 1 0.15694 0.785321 0.674448
399 1 0.680027 0.820494 0.72042
43 1 0.046297 0.908788 0.697607
201 1 0.00980998 0.913702 0.729066
127 1 0.0251351 0.906673 0.710024
509 1 0.955051 0.891978 0.709648
17 1 0.230335 0.944664 0.694143
197 1 0.279866 0.960921 0.715733
109 1 0.868726 0.974494 0.707137
249 1 0.0625425 0.104073 0.777986
45 1 0.35308 0.158896 0.812946
255 1 0.344897 0.0927564 0.804449
404 1 0.475244 0.132715 0.77478
323 1 0.662983 0.164247 0.821331
418 1 0.640424 0.133495 0.779018
497 1 0.0200049 0.200143 0.781534
172 1 0.23793 0.246036 0.825046
394 1 0.527971 0.204057 0.751356
213 1 0.712583 0.169169 0.818944
112 1 0.166549 0.253446 0.829167
18 1 0.291347 0.279893 0.784285
349 1 0.580981 0.284789 0.795277
355 1 0.586041 0.251876 0.752387
491 1 0.961902 0.304473 0.759137
396 1 0.222184 0.342854 0.797135
104 1 0.257961 0.496337 0.816633
459 1 0.35562 0.445164 0.787133
269 1 0.749146 0.489657 0.773568
378 1 0.678184 0.487384 0.812953
22 1 0.871614 0.46985 0.776084
199 1 0.478799 0.512598 0.828957
501 1 0.644861 0.566908 0.821449
183 1 0.837156 0.535543 0.794122
479 1 0.649467 0.614313 0.799827
335 1 0.0893013 0.723089 0.763785
275 1 0.11907 0.728192 0.809511
231 1 0.213963 0.701711 0.801763
126 1 0.273596 0.682849 0.7737
473 1 0.474038 0.682547 0.764129
309 1 0.666374 0.703915 0.816306
411 1 0.766029 0.733228 0.83232
299 1 0.87655 0.740779 0.780527
148 1 0.945356 0.711572 0.797787
317 1 0.401845 0.78772 0.812396
511 1 0.889308 0.762813 0.757984
234 1 0.989241 0.754965 0.81069
176 1 0.309758 0.904006 0.815141
116 1 0.592557 0.919501 0.812567
320 1 0.678855 0.931554 0.8243
225 1 0.994428 0.990259 0.785385
397 1 0.945926 0.938851 0.771918
493 1 0.188071 0.0387133 0.876974
224 1 0.442753 0.00247117 0.835952
494 1 0.539547 0.0726753 0.889834
280 1 0.548514 0.024334 0.905877
506 1 0.542564 0.0128844 0.834701
153 1 0.823139 0.0200332 0.868005
344 1 0.935155 0.162349 0.876386
194 1 0.00273155 0.201607 0.894172
66 1 0.16301 0.219291 0.857126
41 1 0.153656 0.233606 0.839518
432 1 0.0951654 0.176275 0.909722
486 1 0.480858 0.232821 0.84882
29 1 0.982229 0.195185 0.881428
369 1 0.423828 0.322592 0.863501
212 1 0.829915 0.318283 0.868144
226 1 0.845694 0.305056 0.852995
406 1 0.388173 0.376979 0.884748
180 1 0.336976 0.45162 0.91146
72 1 0.493727 0.481485 0.84614
362 1 0.770567 0.467085 0.871993
469 1 0.104893 0.545902 0.84702
81 1 0.178363 0.561261 0.886241
223 1 0.255444 0.543683 0.84422
484 1 0.349692 0.580832 0.83637
304 1 0.108825 0.609447 0.889415
10 1 0.0910293 0.624613 0.896813
485 1 0.413586 0.637315 0.908944
4 1 0.633749 0.601601 0.867574
214 1 0.195107 0.68969 0.872722
114 1 0.446761 0.731114 0.837979
178 1 0.891798 0.720258 0.849062
286 1 0.947744 0.680962 0.897728
135 1 0.239753 0.765577 0.879114
492 1 0.689665 0.815669 0.903178
504 1 0.932945 0.752261 0.886869
105 1 0.000303368 0.902112 0.886533
463 1 0.267301 0.910924 0.872252
171 1 0.711358 0.893863 0.863459
170 1 0.751661 0.851333 0.860041
248 1 0.189385 0.933131 0.853724
314 1 0.388911 0.967522 0.875206
371 1 0.490524 0.964663 0.915213
423 1 0.600811 0.984458 0.849822
155 1 0.713455 0.954945 0.893941
425 1 0.767942 0.957319 0.870603
434 1 0.915001 0.941558 0.873513
216 1 0.393925 0.0681052 0.925181
111 1 0.548664 0.0197336 0.959271
149 1 0.66582 0.0412639 0.970738
364 1 0.900714 0.0350276 0.932794
150 1 0.0766772 0.104102 0.965898
303 1 0.136346 0.151759 0.970141
118 1 0.0865071 0.124104 0.976469
186 1 0.379151 0.125636 0.967084
7 1 0.393596 0.11353 0.983414
131 1 0.675976 0.104486 0.962716
489 1 0.873764 0.147715 0.953385
283 1 0.351729 0.168204 0.950103
343 1 0.926461 0.166889 0.957838
59 1 0.614724 0.341953 0.994751
288 1 0.62161 0.359557 0.978633
398 1 0.0150827 0.483503 0.938203
99 1 0.0482702 0.479549 0.963221
436 1 0.524613 0.435173 0.956065
450 1 0.720947 0.435964 0.924019
100 1 0.696547 0.437633 0.981222
401 1 0.703271 0.418672 0.920824
177 1 0.962447 0.498089 0.974418
193 1 0.047369 0.517538 0.975434
36 1 0.383939 0.610352 0.933446
157 1 0.452777 0.730242 0.983178
26 1 0.471031 0.684544 0.946074
243 1 0.730151 0.742914 0.970316
351 1 0.401733 0.815141 0.922077
510 1 0.781615 0.771857 0.929705
254 1 0.480134 0.90138 0.953877
110 1 0.471606 0.846214 0.92667
403 1 0.550866 0.900017 0.957848
163 1 0.619538 0.841813 0.948824
455 1 0.955407 0.895847 0.94672
128 1 0.933059 0.904003 0.939763
84 1 0.0297016 0.93325 0.993691
ITEM: TIMESTEP
10000
ITEM: NUMBER OF ATOMS
512
ITEM: BOX BOUNDS pp pp pp
0.0000000000000000e+00 4.0000000000000000e+01
0.0000000000000000e+00 4.0000000000000000e+01
0.0000000000000000e+00 4.0000000000000000e+01
ITEM: ATOMS id type xs ys zs
172 1 0.0724609 0.0605808 0.068818
315 1 0.460848 0.00721365 0.0556987
57 1 0.296856 0.0999462 0.0459831
395 1 0.735484 0.0932114 0.025195
316 1 0.904321 0.134505 0.0403411
102 1 0.942233 0.149324 0.0248243
409 1 0.317019 0.234515 0.00266537
343 1 0.0407852 0.273019 0.0122645
353 1 0.143172 0.277836 0.0516766
95 1 0.255992 0.276926 0.0208125
79 1 0.587746 0.326772 0.0644729
275 1 0.29506 0.339218 0.0106621
365 1 0.33378 0.410646 0.0813942
276 1 0.399476 0.385298 0.0536753
458 1 0.585142 0.373505 0.0282269
394 1 0.142169 0.460641 0.0575241
43 1 0.674063 0.480415 0.0247591
289 1 0.162036 0.577918 0.050286
140 1 0.324674 0.578978 0.0678678
317 1 0.580597 0.504733 0.0540962
142 1 0.668771 0.518547 0.0125635
231 1 0.771093 0.576817 0.0284465
369 1 0.296596 0.665528 0.0597378
278 1 0.506014 0.640427 0.0398862
112 1 0.745552 0.649042 0.0798051
229 1 0.906233 0.600704 0.00886046
290 1 0.0533272 0.795657 0.0644698
26 1 0.743207 0.767171 0.0647375
308 1 0.855943 0.820722 0.0222882
441 1 0.863556 0.769939 0.00544852
285 1 0.183394 0.838929 0.00084633
119 1 0.411964 0.881005 0.0500768
146 1 0.441842 0.859043 0.0356562
463 1 0.597778 0.911182 0.0594761
350 1 0.663024 0.916568 0.00178469
502 1 0.188372 0.991793 0.0637458
464 1 0.230569 0.969844 0.0646912
153 1 0.57325 0.98492 0.0403059
201 1 0.637479 0.948113 0.0713603
318 1 0.192741 0.00339737 0.0852767
496 1 0.746924 0.0536767 0.111294
393 1 0.943041 0.0371544 0.149328
237 1 0.646772 0.0853314 0.124429
170 1 0.928739 0.0901895 0.164768
110 1 0.0625048 0.177987 0.125842
359 1 0.332381 0.197652 0.103954
189 1 0.353099 0.217036 0.120419
381 1 0.373454 0.228027 0.12182
111 1 0.0866427 0.296611 0.0890348
390 1 0.425459 0.268413 0.166448
87 1 0.483573 0.268246 0.117813
486 1 0.594886 0.302313 0.0912165
52 1 0.69089 0.330185 0.12772
404 1 0.15572 0.343024 0.163329
481 1 0.226949 0.408683 0.160977
434 1 0.963423 0.355 0.117302
334 1 0.0668773 0.467682 0.0932622
304 1 0.481079 0.431914 0.14501
492 1 0.47937 0.445512 0.112702
33 1 0.492886 0.451915 0.13702
374 1 0.628533 0.483762 0.0958236
450 1 0.965704 0.452419 0.144624
485 1 0.0247136 0.558396 0.124927
44 1 0.0918566 0.521495 0.15658
207 1 0.13647 0.531354 0.149553
412 1 0.211811 0.5757 0.126652
72 1 0.286151 0.501301 0.166002
385 1 0.450008 0.526309 0.127583
438 1 0.522592 0.578841 0.130479
396 1 0.585816 0.546454 0.117128
508 1 0.877895 0.564921 0.138893
342 1 0.979919 0.514585 0.121718
180 1 0.271824 0.595173 0.130502
203 1 0.251479 0.604994 0.148061
53 1 0.854823 0.588028 0.16505
444 1 0.879751 0.611891 0.116057
287 1 0.0448294 0.693747 0.107969
244 1 0.0789647 0.726464 0.146905
113 1 0.246604 0.683978 0.162085
168 1 0.24629 0.684955 0.124203
167 1 0.546586 0.741312 0.118904
295 1 0.688184 0.683373 0.139904
34 1 0.939514 0.715615 0.121028
408 1 0.283128 0.767314 0.160204
384 1 0.745868 0.786068 0.0968982
239 1 0.745983 0.7933 0.12351
322 1 0.93039 0.820721 0.107852
495 1 0.94225 0.756697 0.0892164
256 1 0.855214 0.883947 0.145984
215 1 0.365992 0.972818 0.130265
55 1 0.51134 0.969053 0.0960579
319 1 0.750641 0.996969 0.111887
307 1 0.856609 0.937044 0.107642
505 1 0.23637 0.0167409 0.176529
85 1 0.396619 0.0370458 0.195862
368 1 0.381936 0.106309 0.183857
199 1 0.413871 0.0954727 0.180488
461 1 0.661863 0.103597 0.229385
227 1 0.648792 0.147136 0.208505
73 1 0.485934 0.181795 0.20244
298 1 0.528471 0.18498 0.225861
187 1 0.995731 0.181804 0.200722
419 1 0.976033 0.214336 0.202264
89 1 0.295484 0.325018 0.231221
246 1 0.65814 0.271005 0.184454
292 1 0.750127 0.252319 0.248782
297 1 0.942431 0.270847 0.168351
433 1 0.0355565 0.377894 0.176477
258 1 0.170017 0.357296 0.208407
426 1 0.362617 0.34215 0.232272
94 1 0.431918 0.40166 0.169291
388 1 0.657239 0.362156 0.167098
217 1 0.605573 0.388967 0.227994
181 1 0.155734 0.478686 0.239709
288 1 0.467037 0.469675 0.245336
159 1 0.746552 0.468515 0.232606
141 1 0.00581861 0.54171 0.240137
249 1 0.272066 0.563348 0.24511
46 1 0.0821594 0.585809 0.216545
360 1 0.153545 0.661042 0.24744
125 1 0.322735 0.659188 0.184549
91 1 0.711131 0.595464 0.245412
216 1 0.685184 0.584268 0.198209
10 1 0.186813 0.69249 0.204695
198 1 0.271395 0.697613 0.223736
37 1 0.416942 0.681871 0.20557
132 1 0.445296 0.682139 0.175236
238 1 0.562381 0.742107 0.235283
194 1 0.6042 0.668358 0.17838
504 1 0.00805047 0.82077 0.21369
366 1 0.253198 0.780374 0.175575
248 1 0.430663 0.827844 0.197053
38 1 0.642778 0.83287 0.204026
29 1 0.822885 0.769748 0.205462
432 1 0.0233584 0.905034 0.206313
12 1 0.271131 0.893944 0.229692
299 1 0.560192 0.926633 0.246664
251 1 0.606017 0.924233 0.246617
234 1 0.212443 0.0362007 0.278378
185 1 0.597683 0.0365736 0.327664
338 1 0.219432 0.157654 0.260419
69 1 0.313124 0.164893 0.329833
82 1 0.431016 0.136683 0.272652
456 1 0.886209 0.0870172 0.257431
487 1 0.497952 0.21221 0.284977
313 1 0.44735 0.249072 0.31696
205 1 0.698518 0.172203 0.278032
120 1 0.0782919 0.297121 0.28595
160 1 0.511012 0.269582 0.295559
370 1 0.868251 0.296557 0.255425
13 1 0.0578415 0.410414 0.320462
348 1 0.0990558 0.343243 0.268635
101 1 0.094377 0.412331 0.281579
118 1 0.0891052 0.348011 0.315983
333 1 0.442858 0.468811 0.267148
253 1 0.571645 0.451016 0.257413
70 1 0.947019 0.488892 0.26698
469 1 0.945885 0.498921 0.314058
511 1 0.210863 0.553625 0.263498
479 1 0.3138 0.574747 0.314257
417 1 0.264138 0.556065 0.30774
286 1 0.278357 0.533354 0.256645
402 1 0.641267 0.514599 0.298987
137 1 0.0182295 0.595522 0.297282
339 1 0.248718 0.660277 0.272866
54 1 0.437417 0.597388 0.278278
155 1 0.994897 0.644286 0.316697
331 1 0.433775 0.731338 0.301424
174 1 0.583248 0.684854 0.269515
435 1 0.661626 0.723652 0.27749
219 1 0.597386 0.704803 0.278077
158 1 0.852893 0.684086 0.25893
447 1 0.579444 0.76278 0.280073
196 1 0.642879 0.765149 0.31691
103 1 0.964659 0.813894 0.302599
100 1 0.163339 0.904726 0.279434
130 1 0.457649 0.875622 0.263586
398 1 0.486434 0.896012 0.29631
397 1 0.708568 0.895673 0.260803
446 1 0.134382 0.956957 0.274253
382 1 0.503584 0.963521 0.251889
445 1 0.206999 0.0487664 0.345286
442 1 0.580957 0.0568807 0.371153
157 1 0.825816 0.0725875 0.385206
128 1 0.967281 0.0400449 0.378299
503 1 0.147375 0.144001 0.415866
500 1 0.473763 0.101934 0.386523
131 1 0.622404 0.124275 0.408644
411 1 0.71772 0.11494 0.390696
330 1 0.996068 0.165787 0.377814
59 1 0.371233 0.169112 0.375285
439 1 0.968853 0.175083 0.368354
204 1 0.988989 0.196957 0.386652
23 1 0.0790312 0.300129 0.382348
139 1 0.0864308 0.277727 0.382742
71 1 0.282113 0.316906 0.336918
477 1 0.383032 0.254159 0.373996
48 1 0.57805 0.300248 0.38136
19 1 0.599868 0.300525 0.391216
489 1 0.707394 0.278289 0.41
147 1 0.840214 0.302659 0.373948
422 1 0.877022 0.261063 0.407373
320 1 0.866413 0.258117 0.384131
389 1 0.545367 0.362203 0.398193
191 1 0.0100286 0.484817 0.346118
115 1 0.104514 0.420688 0.347158
81 1 0.483334 0.455378 0.400431
49 1 0.0265111 0.556836 0.370028
314 1 0.0387379 0.52843 0.344779
169 1 0.457914 0.539335 0.344113
240 1 0.582774 0.526884 0.403317
133 1 0.773301 0.542925 0.392136
300 1 0.478608 0.660149 0.414433
459 1 0.701788 0.660014 0.344488
448 1 0.901057 0.626352 0.357854
494 1 0.224335 0.711747 0.372646
392 1 0.369898 0.672654 0.365491
268 1 0.547418 0.714964 0.403432
255 1 0.771983 0.685196 0.335805
224 1 0.963225 0.667269 0.414511
403 1 0.385045 0.771185 0.363538
437 1 0.341376 0.773218 0.378352
284 1 0.200937 0.843406 0.391173
42 1 0.211558 0.838994 0.365379
233 1 0.225699 0.838551 0.341301
8 1 0.366286 0.884956 0.377543
36 1 0.516656 0.858665 0.395694
305 1 0.146121 0.964637 0.410832
452 1 0.799867 0.961119 0.35754
225 1 0.991721 0.955256 0.364433
470 1 0.0856145 0.0562987 0.430647
443 1 0.406404 0.0550538 0.474412
32 1 0.497432 0.00239421 0.497492
3 1 0.56924 0.065851 0.437592
202 1 0.553811 0.0621268 0.456478
377 1 0.630517 0.0217169 0.481761
232 1 0.746344 0.0173376 0.492052
351 1 0.702003 0.0197293 0.468039
347 1 0.882983 0.0119896 0.449109
484 1 0.867683 0.0302357 0.439638
74 1 0.0318882 0.157313 0.435841
39 1 0.610786 0.100938 0.450318
391 1 0.717091 0.117029 0.434467
482 1 0.701441 0.118831 0.449627
436 1 0.684744 0.248673 0.466703
252 1 0.882869 0.171188 0.424365
356 1 0.154341 0.250046 0.457449
175 1 0.212744 0.322407 0.439195
499 1 0.252611 0.335606 0.457951
80 1 0.412013 0.437097 0.45816
162 1 0.455043 0.435432 0.495858
245 1 0.431124 0.447981 0.447883
92 1 0.47259 0.518201 0.481036
77 1 0.557198 0.544168 0.471128
383 1 0.21005 0.662007 0.432479
260 1 0.69488 0.641574 0.485737
457 1 0.914581 0.625958 0.432357
478 1 0.751443 0.715365 0.428684
138 1 0.1458 0.804398 0.464341
105 1 0.678557 0.753658 0.445733
431 1 0.695946 0.788665 0.454188
274 1 0.811997 0.770729 0.44875
96 1 0.00630648 0.847214 0.497264
106 1 0.190407 0.888326 0.479138
75 1 0.400862 0.960264 0.497131
491 1 0.416518 0.986663 0.490216
221 1 0.986328 0.965587 0.497927
18 1 0.377239 0.0121664 0.540501
86 1 0.19979 0.122782 0.535378
66 1 0.447311 0.138642 0.508493
51 1 0.849424 0.130613 0.503038
7 1 0.16983 0.212747 0.579903
380 1 0.526659 0.173949 0.571057
279 1 0.597423 0.217594 0.546852
6 1 0.628759 0.192741 0.529649
11 1 0.816148 0.174812 0.542129
498 1 0.954577 0.255705 0.562349
349 1 0.137935 0.373682 0.562575
14 1 0.622396 0.408711 0.513607
220 1 0.204733 0.484391 0.562017
344 1 0.256253 0.490305 0.558043
283 1 0.41328 0.484677 0.506529
335 1 0.480334 0.422175 0.575609
210 1 0.610503 0.434057 0.541688
134 1 0.0698577 0.546981 0.528668
88 1 0.24113 0.577379 0.507179
50 1 0.381946 0.540948 0.521367
218 1 0.886529 0.581717 0.546452
346 1 0.400396 0.606452 0.534884
212 1 0.498713 0.610809 0.520988
488 1 0.708109 0.620256 0.58042
371 1 0.897633 0.630863 0.510143
65 1 0.739359 0.728601 0.551647
99 1 0.806252 0.746052 0.566005
472 1 0.201754 0.791928 0.521913
310 1 0.290565 0.767523 0.526781
193 1 0.471593 0.774568 0.51896
152 1 0.576047 0.816411 0.550154
282 1 0.593406 0.811649 0.566743
63 1 0.922945 0.781729 0.53018
460 1 0.95905 0.799983 0.562006
171 1 0.206441 0.879142 0.512249
182 1 0.440221 0.856151 0.558161
200 1 0.0813279 0.982995 0.558401
309 1 0.328315 0.955679 0.519983
58 1 0.362623 0.994949 0.523834
206 1 0.336035 0.937752 0.572128
148 1 0.422444 0.986206 0.535517
136 1 0.439843 0.992581 0.516226
306 1 0.567225 0.931104 0.539035
177 1 0.705263 0.925471 0.513382
387 1 0.999719 0.916684 0.554408
179 1 0.213715 0.0377271 0.604931
144 1 0.175623 0.0545394 0.613329
135 1 0.424257 0.051119 0.621657
67 1 0.679058 0.0748054 0.630506
462 1 0.678638 0.036231 0.654354
195 1 0.674416 0.0514467 0.629862
145 1 0.672353 0.0617071 0.60238
15 1 0.973338 0.0646022 0.660985
296 1 0.0847182 0.131645 0.665868
116 1 0.174231 0.13061 0.62134
354 1 0.271993 0.165098 0.639823
400 1 0.00738899 0.306697 0.614153
312 1 0.0311288 0.308105 0.6359
209 1 0.2226 0.332866 0.594867
84 1 0.981706 0.259793 0.660949
471 1 0.31406 0.370842 0.609814
40 1 0.384701 0.346568 0.589439
35 1 0.485078 0.337479 0.584224
493 1 0.955957 0.36187 0.594401
367 1 0.280741 0.492898 0.643151
243 1 0.552116 0.461092 0.618507
473 1 0.718622 0.450986 0.586407
424 1 0.0995626 0.559454 0.616376
197 1 0.301073 0.503533 0.658162
21 1 0.193415 0.604615 0.660414
22 1 0.475556 0.586224 0.659611
27 1 0.651412 0.606627 0.659663
78 1 0.272434 0.727122 0.61125
214 1 0.25433 0.678836 0.642521
337 1 0.63715 0.725242 0.636885
5 1 0.678621 0.711458 0.610626
429 1 0.704016 0.717285 0.613388
474 1 0.92602 0.670479 0.59798
9 1 0.0678982 0.776591 0.634293
235 1 0.447501 0.814988 0.601722
208 1 0.954734 0.810597 0.624218
291 1 0.195642 0.851346 0.627784
163 1 0.155911 0.954099 0.622434
364 1 0.458348 0.954366 0.654225
176 1 0.863587 0.943997 0.662942
427 1 0.13332 0.0937855 0.697695
68 1 0.282388 0.120708 0.668576
267 1 0.663624 0.142434 0.708368
188 1 0.676133 0.130253 0.744579
108 1 0.488325 0.200691 0.732956
372 1 0.553566 0.20056 0.722412
418 1 0.888666 0.214312 0.68334
497 1 0.192736 0.275643 0.68334
293 1 0.289756 0.253255 0.743083
321 1 0.352625 0.313335 0.744673
222 1 0.436767 0.282932 0.725385
56 1 0.547558 0.263319 0.714581
1 1 0.815556 0.252425 0.743643
265 1 0.374847 0.381709 0.74743
328 1 0.633118 0.34859 0.679596
341 1 0.74416 0.387897 0.700433
301 1 0.669134 0.390674 0.722617
98 1 0.882512 0.338145 0.699772
97 1 0.101179 0.457545 0.721702
156 1 0.344426 0.534317 0.67637
123 1 0.489605 0.510272 0.728111
326 1 0.500254 0.528753 0.740381
423 1 0.0722616 0.631131 0.72587
490 1 0.373889 0.658869 0.740107
151 1 0.403308 0.66565 0.727772
257 1 0.412387 0.660199 0.701368
451 1 0.0935035 0.71474 0.74849
386 1 0.380539 0.671828 0.719652
28 1 0.363845 0.736465 0.667329
454 1 0.802237 0.720833 0.702568
323 1 0.794225 0.699912 0.73355
510 1 0.294637 0.824985 0.697207
440 1 0.55459 0.778165 0.742493
376 1 0.915068 0.791336 0.726794