ITEM: TIMESTEP
0
ITEM: NUMBER OF ATOMS
512
ITEM: BOX BOUNDS pp pp pp
0.0000000000000000e+00 4.0000000000000000e+01
0.0000000000000000e+00 4.0000000000000000e+01
0.0000000000000000e+00 4.0000000000000000e+01
ITEM: ATOMS id type xs ys zs
376 1 0.982278 0.0223023 0.00312883
372 1 0.0119993 0.16432 0.0475773
85 1 0.715679 0.0910769 0.0111509
194 1 0.695459 0.141734 0.0220585
241 1 0.705161 0.116847 0.0582893
250 1 0.964244 0.151941 0.0188102
168 1 0.374032 0.249406 0.0540145
243 1 0.904104 0.204379 0.0269536
411 1 0.1794 0.265144 0.0341529
133 1 0.353709 0.259058 0.0648684
193 1 0.462852 0.306763 0.0388314
169 1 0.855029 0.310849 0.0805034
367 1 0.278177 0.392184 0.0328044
349 1 0.349237 0.405259 0.0717462
130 1 0.722548 0.347437 0.00695809
86 1 0.167452 0.422922 0.0173421
52 1 0.823314 0.42114 0.0213579
49 1 0.0605989 0.50561 0.0697482
300 1 0.141385 0.533847 0.0315914
150 1 0.0959475 0.604431 0.0581186
145 1 0.606813 0.585719 0.0629214
500 1 0.944353 0.635364 0.012791
39 1 0.0138629 0.709979 0.00301983
125 1 0.112889 0.740181 0.0454403
220 1 0.239126 0.669371 0.0474898
137 1 0.332736 0.741324 0.0620941
346 1 0.527156 0.73258 0.0400781
221 1 0.763037 0.715478 0.0188061
306 1 0.390714 0.832214 0.0557616
438 1 0.360507 0.835025 0.0164159
212 1 0.337667 0.840258 0.0078271
340 1 0.425371 0.834677 0.0677477
24 1 0.445876 0.87496 0.0379379
101 1 0.658829 0.875781 0.00605762
256 1 0.926905 0.857911 0.0141665
491 1 0.968384 0.863256 0.0355584
106 1 0.157214 0.985782 0.00646187
444 1 0.374546 0.967691 0.0644008
262 1 0.336387 0.972334 0.0420649
267 1 0.75856 0.984895 0.0676359
353 1 0.0866841 0.0192989 0.0972229
348 1 0.488501 0.0200196 0.0869206
97 1 0.675329 0.0329262 0.136498
136 1 0.569499 0.154642 0.102778
154 1 0.555807 0.135042 0.0955155
398 1 0.425373 0.224234 0.162125
506 1 0.581751 0.20231 0.1154
383 1 0.986944 0.180326 0.156059
226 1 0.125881 0.299349 0.156122
74 1 0.2106 0.282026 0.126266
40 1 0.191123 0.331233 0.164056
14 1 0.31822 0.266611 0.108595
114 1 0.635071 0.256784 0.0945267
294 1 0.629534 0.287852 0.130569
146 1 0.83518 0.310071 0.0987366
159 1 0.858309 0.301576 0.102984
473 1 0.851854 0.324498 0.109856
63 1 0.147306 0.351803 0.084532
172 1 0.356534 0.342405 0.147619
457 1 0.711926 0.443458 0.117955
338 1 0.839477 0.499753 0.134039
401 1 0.0412204 0.541702 0.139434
3 1 0.573918 0.534927 0.131927
42 1 0.83421 0.535726 0.133504
315 1 0.918998 0.581078 0.119102
288 1 0.324972 0.625598 0.0926615
163 1 0.344133 0.639129 0.0839786
493 1 0.360006 0.659006 0.110788
259 1 0.570808 0.641086 0.145254
378 1 0.368072 0.682696 0.10962
236 1 0.438319 0.736021 0.100712
501 1 0.145249 0.797503 0.0949704
69 1 0.192046 0.788218 0.0990988
177 1 0.291901 0.754497 0.110962
158 1 0.646648 0.82423 0.130762
443 1 0.741002 0.791227 0.10414
483 1 0.814979 0.782622 0.149047
370 1 0.90476 0.799749 0.125479
12 1 0.117424 0.870035 0.139703
468 1 0.894305 0.87909 0.0847171
292 1 0.937291 0.841178 0.0957079
109 1 0.145246 0.961874 0.0986365
334 1 0.340786 0.930956 0.121761
281 1 0.565991 0.924898 0.087272
224 1 0.075809 0.0141248 0.223063
458 1 0.587944 0.018515 0.220963
55 1 0.157899 0.123899 0.204165
374 1 0.407435 0.208429 0.168421
283 1 0.417425 0.20057 0.20401
126 1 0.425747 0.213267 0.184539
336 1 0.948347 0.198857 0.183414
253 1 0.541377 0.275269 0.186332
477 1 0.539734 0.264747 0.208925
388 1 0.621889 0.296242 0.19968
237 1 0.6895 0.290876 0.229853
144 1 0.159171 0.379412 0.167976
489 1 0.629118 0.336137 0.204286
182 1 0.644594 0.351499 0.19203
211 1 0.808952 0.360066 0.208932
41 1 0.799202 0.346031 0.190719
79 1 0.0736941 0.443346 0.16932
298 1 0.0887834 0.462548 0.178979
68 1 0.575037 0.495823 0.223482
303 1 0.634796 0.46981 0.216745
455 1 0.667693 0.470563 0.220843
93 1 0.68192 0.466247 0.20071
404 1 0.692762 0.46893 0.222993
208 1 0.962924 0.443856 0.205733
469 1 0.383389 0.576556 0.209479
407 1 0.783653 0.581861 0.227912
413 1 0.270702 0.607315 0.180378
4 1 0.259191 0.604261 0.235844
64 1 0.783438 0.602667 0.241718
249 1 0.60329 0.710598 0.229265
195 1 0.694628 0.691211 0.198246
293 1 0.675019 0.720992 0.201501
426 1 0.689598 0.707434 0.216396
321 1 0.887742 0.733923 0.216961
446 1 0.0156905 0.799254 0.202012
183 1 0.0154042 0.799049 0.226984
337 1 0.480593 0.799554 0.18205
454 1 0.93542 0.823407 0.245023
156 1 0.832381 0.844828 0.242638
13 1 0.846459 0.871366 0.192165
496 1 0.217157 0.998603 0.187052
17 1 0.474321 0.96317 0.205171
191 1 0.669205 0.996549 0.224851
505 1 0.22682 0.0102901 0.268655
134 1 0.476685 0.0102987 0.250532
111 1 0.655989 0.0301341 0.330297
112 1 0.587416 0.0186996 0.324932
437 1 0.986398 0.0262493 0.302876
428 1 0.640481 0.13475 0.324726
319 1 0.65405 0.155343 0.320783
478 1 0.700717 0.142851 0.302632
410 1 0.944879 0.107042 0.287448
188 1 0.929113 0.235222 0.290411
107 1 0.579935 0.272071 0.259868
120 1 0.514173 0.303827 0.292031
274 1 0.178008 0.3899 0.293767
26 1 0.233097 0.33343 0.322367
233 1 0.269697 0.386126 0.318527
366 1 0.728155 0.363616 0.28905
270 1 0.319697 0.484812 0.28563
482 1 0.188475 0.52261 0.272418
361 1 0.179133 0.57001 0.317623
147 1 0.860443 0.566276 0.259245
358 1 0.747171 0.585767 0.295435
29 1 0.143616 0.710857 0.265558
480 1 0.624909 0.712711 0.289692
98 1 0.716364 0.720284 0.288891
289 1 0.756411 0.682054 0.315724
420 1 0.619289 0.818348 0.278484
324 1 0.746845 0.827224 0.257224
295 1 0.739416 0.753377 0.305902
47 1 0.825643 0.821343 0.323539
440 1 0.0198195 0.852197 0.269276
190 1 0.155086 0.914808 0.332493
341 1 0.186851 0.83407 0.292092
512 1 0.272902 0.916342 0.324601
268 1 0.368678 0.89655 0.263111
316 1 0.641687 0.861258 0.291914
379 1 0.906709 0.864538 0.317449
447 1 0.172758 0.917022 0.281881
350 1 0.438267 0.926903 0.321983
359 1 0.616456 0.966646 0.274301
445 1 0.583532 0.935582 0.311019
167 1 0.707782 0.939208 0.290681
311 1 0.301074 0.0537487 0.397432
87 1 0.454938 0.0540421 0.382525
471 1 0.649462 0.0786195 0.363107
83 1 0.124805 0.084675 0.371956
121 1 0.18853 0.136751 0.401576
184 1 0.281908 0.0861762 0.383603
333 1 0.686001 0.128203 0.401892
228 1 0.717996 0.127955 0.380903
157 1 0.801498 0.12282 0.390822
139 1 0.870191 0.113685 0.390843
465 1 0.363819 0.200405 0.414078
360 1 0.404337 0.182345 0.387769
110 1 0.254744 0.300858 0.346614
5 1 0.316867 0.272082 0.415393
301 1 0.354848 0.31303 0.394065
481 1 0.363066 0.332595 0.407233
88 1 0.629184 0.264528 0.380631
362 1 0.843859 0.27033 0.36342
32 1 0.69522 0.408073 0.400829
279 1 0.284768 0.428149 0.372788
425 1 0.537651 0.438868 0.345913
345 1 0.533632 0.420048 0.361827
347 1 0.61158 0.471859 0.391201
414 1 0.285016 0.562967 0.369328
48 1 0.646475 0.570303 0.369544
73 1 0.841486 0.545412 0.3514
116 1 0.99949 0.550803 0.344451
18 1 0.625459 0.58337 0.36902
461 1 0.958744 0.661436 0.376848
135 1 0.19254 0.673537 0.358725
322 1 0.312954 0.745917 0.340856
166 1 0.353309 0.709507 0.36601
507 1 0.510086 0.722179 0.343359
31 1 0.201502 0.765767 0.40304
230 1 0.341574 0.839069 0.342532
201 1 0.545687 0.846781 0.389131
16 1 0.487112 0.975494 0.385684
196 1 0.520499 0.956935 0.350746
332 1 0.994517 0.961262 0.335505
435 1 0.487372 0.0363955 0.461825
252 1 0.205242 0.0856443 0.475819
287 1 0.474308 0.0976935 0.435569
318 1 0.780509 0.156347 0.436956
153 1 0.919831 0.101635 0.441381
432 1 0.748622 0.230983 0.463206
405 1 0.987848 0.224426 0.460255
103 1 0.188505 0.255439 0.422959
467 1 0.818241 0.327757 0.440669
44 1 0.816218 0.310025 0.42332
244 1 0.726758 0.388006 0.44218
476 1 0.6734 0.373359 0.438807
25 1 0.809231 0.336866 0.462008
389 1 0.805053 0.42507 0.487838
179 1 0.0155969 0.513807 0.480491
9 1 0.00332926 0.530702 0.497288
386 1 0.610192 0.548293 0.452669
452 1 0.987201 0.582038 0.491907
427 1 0.159476 0.632811 0.426285
254 1 0.437037 0.653104 0.488392
451 1 0.846312 0.662505 0.419394
113 1 0.914651 0.587677 0.434987
33 1 0.714677 0.741178 0.42051
330 1 0.818107 0.74936 0.484208
50 1 0.0880685 0.785986 0.481961
472 1 0.630043 0.756422 0.44642
161 1 0.948279 0.761179 0.483493
408 1 0.717119 0.846311 0.422713
310 1 0.429677 0.936986 0.480466
375 1 0.992222 0.966241 0.481415
351 1 0.144386 0.032921 0.510432
197 1 0.313832 0.0801583 0.580372
99 1 0.300833 0.00349154 0.51477
160 1 0.286753 0.0402188 0.53779
214 1 0.29161 0.0265376 0.517466
320 1 0.352155 0.0558092 0.522894
429 1 0.800925 0.0308972 0.558492
276 1 0.175476 0.0862558 0.546409
494 1 0.375047 0.119434 0.561187
70 1 0.976304 0.14646 0.542904
148 1 0.978351 0.107979 0.54063
170 1 0.618263 0.224076 0.566705
200 1 0.704874 0.170851 0.509491
450 1 0.870276 0.185434 0.568136
412 1 0.257413 0.291996 0.537819
313 1 0.524989 0.342773 0.50167
364 1 0.680326 0.386673 0.505038
307 1 0.670144 0.383059 0.545575
397 1 0.0416932 0.492348 0.504067
122 1 0.11164 0.422976 0.512494
100 1 0.251622 0.4201 0.528459
285 1 0.798804 0.452934 0.56862
490 1 0.775287 0.446515 0.564775
251 1 0.870026 0.449527 0.551457
15 1 0.328597 0.530003 0.532962
127 1 0.274558 0.53044 0.571245
181 1 0.254226 0.517769 0.578313
390 1 0.589088 0.580825 0.555444
128 1 0.733345 0.516408 0.521622
439 1 0.761056 0.558088 0.579824
296 1 0.757185 0.533711 0.575992
104 1 0.289084 0.590528 0.500475
132 1 0.427609 0.635284 0.50316
284 1 0.787201 0.621987 0.579056
329 1 0.846119 0.665884 0.582586
10 1 0.216693 0.737207 0.565586
290 1 0.199152 0.68762 0.572618
312 1 0.456738 0.692032 0.502082
381 1 0.865271 0.671019 0.568021
424 1 0.382808 0.788989 0.580084
138 1 0.43823 0.821473 0.514539
423 1 0.513372 0.772274 0.518728
222 1 0.804675 0.753589 0.575501
280 1 0.163724 0.856847 0.510632
180 1 0.332551 0.862966 0.56477
38 1 0.546081 0.861442 0.504971
275 1 0.775694 0.838482 0.577777
339 1 0.0183809 0.938161 0.571317
202 1 0.513269 0.981931 0.563995
234 1 0.636882 0.932502 0.562166
399 1 0.603508 0.94012 0.576776
456 1 0.889209 0.943884 0.526136
45 1 0.32951 0.0559122 0.632761
403 1 0.437933 0.0245802 0.641177
198 1 0.825237 0.0107653 0.598095
449 1 0.202595 0.152161 0.653061
448 1 0.376312 0.161351 0.615637
248 1 0.373993 0.123791 0.585782
199 1 0.35407 0.150512 0.658885
242 1 0.353727 0.153531 0.621714
497 1 0.460482 0.157159 0.596844
23 1 0.441946 0.136909 0.653764
326 1 0.46561 0.133352 0.602372
8 1 0.53415 0.207495 0.636437
475 1 0.528332 0.229796 0.626816
36 1 0.721766 0.20872 0.661927
402 1 0.904067 0.18018 0.597404
421 1 0.0801204 0.291916 0.666594
210 1 0.272401 0.325767 0.647852
77 1 0.273009 0.253222 0.601118
392 1 0.0137142 0.34937 0.595575
328 1 0.0156742 0.367273 0.612879
206 1 0.149228 0.415115 0.625366
417 1 0.386779 0.361664 0.659909
225 1 0.355582 0.39323 0.65682
119 1 0.77102 0.380337 0.601961
207 1 0.128939 0.426257 0.634098
92 1 0.164983 0.425224 0.641491
71 1 0.158507 0.425696 0.665499
356 1 0.145123 0.438158 0.648619
365 1 0.120123 0.486376 0.654955
123 1 0.200089 0.489084 0.634548
152 1 0.473936 0.428643 0.607693
369 1 0.606793 0.461524 0.604139
394 1 0.758564 0.419447 0.666541
37 1 0.0897781 0.541306 0.65058
488 1 0.190125 0.511965 0.63554
422 1 0.705496 0.538264 0.628783
175 1 0.688355 0.544497 0.665367
60 1 0.833897 0.582477 0.599285
108 1 0.213697 0.60103 0.623288
115 1 0.23681 0.586046 0.64487
239 1 0.263771 0.64684 0.665295
162 1 0.343548 0.718172 0.590997
215 1 0.644823 0.681986 0.600703
143 1 0.265931 0.816735 0.647714
305 1 0.341098 0.785596 0.586456
102 1 0.516736 0.79019 0.648953
291 1 0.503903 0.768808 0.650347
131 1 0.643681 0.761531 0.59577
502 1 0.659904 0.775166 0.608196
430 1 0.664013 0.804243 0.638065
58 1 0.647544 0.786696 0.64463
67 1 0.717071 0.791882 0.634133
205 1 0.912093 0.780771 0.590878
164 1 0.0426826 0.859255 0.609666
377 1 0.432585 0.897373 0.592315
57 1 0.739136 0.904326 0.585847
387 1 0.697648 0.866231 0.630532
499 1 0.8939 0.904612 0.638804
51 1 0.124699 0.96158 0.664239
335 1 0.343906 0.954953 0.602718
495 1 0.650886 0.986885 0.599712
30 1 0.663005 0.93556 0.631245
34 1 0.663545 0.971514 0.614866
260 1 0.948324 0.961936 0.606801
216 1 0.067908 0.142287 0.733711
185 1 0.187828 0.166225 0.667476
255 1 0.902617 0.101919 0.736869
81 1 0.782866 0.176668 0.701634
204 1 0.8628 0.190137 0.691959
176 1 0.544457 0.31729 0.704715
165 1 0.604108 0.312188 0.699638
282 1 0.931246 0.371669 0.739153
317 1 0.515053 0.424629 0.66689
11 1 0.743295 0.429131 0.73522
28 1 0.875052 0.453585 0.748372
357 1 0.0511982 0.552943 0.681279
355 1 0.306835 0.546655 0.746044
277 1 0.12152 0.614442 0.725483
309 1 0.268723 0.588094 0.748799
460 1 0.438279 0.598595 0.706632
391 1 0.524727 0.613964 0.681326
80 1 0.947813 0.621766 0.67454
84 1 0.351257 0.668544 0.749005
178 1 0.467652 0.699622 0.699147
380 1 0.711453 0.712404 0.689592
393 1 0.294042 0.770637 0.671293
223 1 0.578614 0.78377 0.706941
231 1 0.622948 0.842647 0.692106
232 1 0.972959 0.999683 0.676215
22 1 0.926001 0.975016 0.702709
174 1 0.305099 0.0780545 0.826129
503 1 0.320348 0.0625947 0.766114
498 1 0.38981 0.0415467 0.82181
54 1 0.344726 0.059514 0.761636
171 1 0.053479 0.110845 0.777461
273 1 0.528019 0.1296 0.804827
66 1 0.825329 0.127181 0.790776
192 1 0.886925 0.159254 0.783825
62 1 0.174509 0.187831 0.79271
140 1 0.345772 0.202245 0.761105
89 1 0.517833 0.190195 0.812002
363 1 0.592096 0.211873 0.806098
415 1 0.871671 0.174754 0.796105
354 1 0.00116727 0.287492 0.776524
95 1 0.359303 0.290586 0.758981
385 1 0.69604 0.317899 0.751777
434 1 0.208261 0.396623 0.764959
246 1 0.383468 0.361261 0.827281
510 1 0.743551 0.341889 0.751784
331 1 0.843984 0.396897 0.767732
419 1 0.937814 0.33501 0.774412
304 1 0.161091 0.479287 0.827898
46 1 0.103588 0.452883 0.770918
343 1 0.22765 0.485261 0.822448
352 1 0.195198 0.489466 0.805344
82 1 0.214465 0.442111 0.805212
400 1 0.55619 0.470303 0.828135
173 1 0.815274 0.477898 0.798826
382 1 0.0810152 0.554286 0.830149
474 1 0.263878 0.523151 0.787656
509 1 0.700275 0.501781 0.827026
508 1 0.156169 0.709105 0.812065
302 1 0.279328 0.693844 0.771868
396 1 0.279214 0.704417 0.794495
272 1 0.865452 0.7357 0.804663
278 1 0.965679 0.681338 0.804117
2 1 0.985699 0.669823 0.794612
342 1 0.243469 0.819634 0.801051
257 1 0.236692 0.807313 0.780417
203 1 0.310656 0.77545 0.811398
325 1 0.947996 0.778674 0.768903
124 1 0.386015 0.888528 0.833058
117 1 0.76361 0.857402 0.795818
384 1 0.868678 0.879561 0.81866
27 1 0.267052 0.947637 0.784463
485 1 0.479434 0.955743 0.758589
105 1 0.494715 0.0549863 0.890793
218 1 0.876915 0.0609835 0.915562
464 1 0.0826995 0.108067 0.915702
155 1 0.676837 0.116872 0.87141
492 1 0.893584 0.149582 0.900411
35 1 0.0425681 0.242443 0.838146
258 1 0.127917 0.188795 0.844462
91 1 0.482688 0.219396 0.912353
269 1 0.513512 0.228448 0.855589
7 1 0.579317 0.200176 0.851016
19 1 0.214071 0.305689 0.840383
416 1 0.418914 0.298748 0.901768
442 1 0.795493 0.314164 0.880219
21 1 0.385778 0.386193 0.845727
219 1 0.495425 0.354685 0.843023
96 1 0.454487 0.364885 0.87683
43 1 0.548028 0.368329 0.833409
459 1 0.614625 0.360367 0.871627
141 1 0.72599 0.343757 0.836881
149 1 0.0879914 0.486004 0.875932
368 1 0.321655 0.473809 0.907923
118 1 0.937335 0.4558 0.904186
470 1 0.896069 0.506533 0.90904
479 1 0.924315 0.507629 0.871883
240 1 0.134898 0.644247 0.857193
90 1 0.618179 0.615024 0.843945
431 1 0.599184 0.598948 0.846062
76 1 0.857732 0.606864 0.89119
261 1 0.956827 0.609406 0.88814
238 1 0.0548348 0.712301 0.904468
466 1 0.248988 0.740773 0.89321
78 1 0.488315 0.69881 0.876933
1 1 0.0865045 0.794716 0.834518
314 1 0.525495 0.78386 0.887412
53 1 0.821275 0.824974 0.866644
266 1 0.136382 0.852878 0.850716
486 1 0.534495 0.857027 0.889125
504 1 0.961654 0.836861 0.907219
371 1 0.0531778 0.964519 0.915275
72 1 0.193777 0.989482 0.861287
56 1 0.309574 0.980442 0.914958
299 1 0.344532 0.978016 0.898666
61 1 0.586238 0.9562 0.837162
6 1 0.0208639 0.0149607 0.931956
94 1 0.314224 0.00420245 0.921102
418 1 0.294353 0.0215073 0.964199
217 1 0.312033 0.011551 0.978811
436 1 0.31819 0.0283103 0.961599
406 1 0.33321 0.0246151 0.981158
265 1 0.56267 0.0167662 0.944451
245 1 0.831196 0.078468 0.923111
344 1 0.853588 0.0676904 0.921266
186 1 0.337035 0.137051 0.980307
271 1 0.837354 0.14942 0.977979
227 1 0.120311 0.311647 0.949845
229 1 0.115447 0.304802 0.926325
187 1 0.913449 0.293439 0.975956
75 1 0.912589 0.317761 0.927594
213 1 0.908897 0.307955 0.99576
484 1 0.933201 0.318595 0.940896
247 1 0.945266 0.321512 0.962505
129 1 0.460246 0.334336 0.969885
327 1 0.611595 0.361695 0.982379
409 1 0.726695 0.406922 0.965411
209 1 0.467066 0.442587 0.969732
511 1 0.451259 0.472127 0.976352
59 1 0.62225 0.42708 0.945844
453 1 0.633844 0.459329 0.993525
65 1 0.0709318 0.659014 0.920369
20 1 0.311769 0.653536 0.928476
151 1 0.468557 0.609176 0.943348
487 1 0.544027 0.643167 0.945426
263 1 0.528375 0.66113 0.952915
308 1 0.84182 0.641166 0.93495
433 1 0.983164 0.663353 0.982149
264 1 0.0235432 0.694267 0.985427
142 1 0.00708402 0.74934 0.917096
441 1 0.457299 0.699506 0.954458
189 1 0.0703862 0.760142 0.987956
235 1 0.0386744 0.814577 0.949564
395 1 0.504345 0.755425 0.938322
297 1 0.399418 0.898618 0.95716
373 1 0.718244 0.898458 0.981163
463 1 0.223698 0.945625 0.977807
286 1 0.200129 0.943905 0.969757
323 1 0.451338 0.952492 0.931136
462 1 0.54204 0.981166 0.921515
ITEM: TIMESTEP
10000
ITEM: NUMBER OF ATOMS
512
ITEM: BOX BOUNDS pp pp pp
0.0000000000000000e+00 4.0000000000000000e+01
0.0000000000000000e+00 4.0000000000000000e+01
0.0000000000000000e+00 4.0000000000000000e+01
ITEM: ATOMS id type xs ys zs
406 1 0.0591752 0.045511 0.0588151
3 1 0.0799219 0.0290882 0.0329922
372 1 0.0471296 0.0656035 0.0568865
293 1 0.00422903 0.0780004 0.00780684
271 1 0.218553 0.0635491 0.0477859
511 1 0.319382 0.027289 0.0501397
448 1 0.758544 0.0575636 0.0191218
250 1 0.83853 0.0708225 0.0388262
210 1 0.858154 0.0713332 0.00776563
79 1 0.160183 0.121709 0.0385683
361 1 0.172223 0.160795 0.0614191
148 1 0.550353 0.139122 0.0718633
431 1 0.535048 0.11021 0.0647483
80 1 0.643137 0.115261 0.0198608
502 1 0.0146615 0.179327 0.0304132
193 1 0.0725191 0.218245 0.0661798
47 1 0.305391 0.242768 0.0765215
509 1 0.421473 0.207168 0.0162813
11 1 0.52519 0.189779 0.0358784
194 1 0.822114 0.225891 0.0125167
335 1 0.254081 0.289106 0.0584244
364 1 0.408367 0.278402 0.0211527
268 1 0.409767 0.29729 0.00154736
319 1 0.595481 0.269025 0.00777974
480 1 0.970629 0.283935 0.0505523
115 1 0.694835 0.368334 0.0105333
102 1 0.698516 0.34948 0.0420399
123 1 0.824709 0.384287 0.00996646
445 1 0.00366318 0.417684 0.00286543
33 1 0.411761 0.49277 0.0188323
305 1 0.603739 0.454204 0.0170873
482 1 0.456204 0.569802 0.077511
181 1 0.744749 0.575697 0.00953033
351 1 0.964944 0.527432 0.0611405
345 1 0.327086 0.639876 0.0656385
500 1 0.555408 0.643852 0.0500121
24 1 0.658279 0.620063 0.0797389
84 1 0.807506 0.60191 0.0816619
121 1 0.975364 0.645423 0.0461019
338 1 0.998568 0.645212 0.0593806
459 1 0.227011 0.67863 0.0755543
391 1 0.290231 0.686877 0.0355493
287 1 0.349772 0.714094 0.0189939
251 1 0.739191 0.716912 0.0672875
18 1 0.721582 0.673621 0.00471094
438 1 0.225767 0.822958 0.0337987
63 1 0.175801 0.816518 0.034049
17 1 0.523336 0.822402 0.0487357
267 1 0.763212 0.789866 0.0646869
128 1 0.781183 0.788405 0.0431571
218 1 0.489032 0.856427 0.0151006
170 1 0.670166 0.909375 0.00785051
208 1 0.956529 0.86449 0.0648284
311 1 0.0262662 0.940578 0.0435388
380 1 0.0379345 0.984439 0.0731578
40 1 0.215816 0.972688 0.0122413
501 1 0.659179 0.92708 0.0169924
344 1 0.400564 0.0112215 0.107864
294 1 0.778317 0.0313296 0.101681
19 1 0.837065 0.0833077 0.0996283
207 1 0.208291 0.0848752 0.121882
29 1 0.236362 0.0941989 0.131055
407 1 0.171272 0.157479 0.135382
312 1 0.428897 0.107568 0.149365
209 1 0.469845 0.0886069 0.153033
356 1 0.601092 0.111084 0.116742
363 1 0.682523 0.1136 0.143135
408 1 0.15486 0.177835 0.133955
249 1 0.706807 0.214745 0.0968832
200 1 0.826077 0.180958 0.130812
27 1 0.0303929 0.326865 0.122788
104 1 0.238748 0.324548 0.105106
233 1 0.629972 0.262237 0.156583
277 1 0.496896 0.396681 0.142798
191 1 0.801692 0.385948 0.0924917
23 1 0.0931374 0.452603 0.0900787
145 1 0.261206 0.475455 0.139007
126 1 0.444225 0.443684 0.125287
498 1 0.251222 0.509525 0.114591
315 1 0.417587 0.556113 0.139549
129 1 0.6341 0.503291 0.158864
397 1 0.353093 0.614336 0.145645
22 1 0.642165 0.662175 0.0877066
78 1 0.600031 0.650945 0.137169
259 1 0.626543 0.585853 0.137303
149 1 0.818625 0.653104 0.0948957
473 1 0.871887 0.602338 0.140534
306 1 0.912086 0.623526 0.152878
463 1 0.937431 0.650723 0.135771
485 1 0.726493 0.730433 0.115706
150 1 0.932747 0.667345 0.164006
179 1 0.642079 0.816653 0.142052
314 1 0.744077 0.820067 0.109748
475 1 0.790927 0.775881 0.162507
131 1 0.107861 0.87986 0.148004
348 1 0.203669 0.841883 0.137973
341 1 0.583684 0.862294 0.105889
441 1 0.684023 0.870777 0.120992
354 1 0.897279 0.885256 0.131871
343 1 0.945656 0.900692 0.112799
393 1 0.0147432 0.999824 0.152454
332 1 0.67522 0.99488 0.1174
263 1 0.698069 0.999635 0.111204
103 1 0.765939 0.960513 0.162936
58 1 0.81859 0.95366 0.117134
229 1 0.987737 0.965785 0.148786
424 1 0.916782 0.962955 0.121661
73 1 0.981176 0.983542 0.1257
157 1 0.190378 0.0556236 0.178102
365 1 0.269308 0.0499312 0.240289
252 1 0.513299 0.0792284 0.220647
172 1 0.17996 0.103894 0.234201
20 1 0.783233 0.14534 0.244805
411 1 0.0488536 0.18236 0.210453
506 1 0.506754 0.178981 0.167374
352 1 0.742365 0.218051 0.170116
25 1 0.958388 0.192906 0.231181
247 1 0.145693 0.282761 0.172849
10 1 0.604024 0.270838 0.175156
453 1 0.744366 0.30873 0.21811
173 1 0.957424 0.270334 0.182283
378 1 0.00960985 0.386061 0.194575
64 1 0.386729 0.415468 0.199547
330 1 0.477791 0.408993 0.219708
7 1 0.306235 0.464191 0.199049
298 1 0.496119 0.428643 0.172074
153 1 0.559843 0.495337 0.217079
357 1 0.675236 0.481431 0.229547
350 1 0.129291 0.577129 0.175376
21 1 0.438815 0.54047 0.214917
369 1 0.478684 0.524156 0.23844
169 1 0.687738 0.51521 0.201662
164 1 0.898933 0.501279 0.168748
1 1 0.962649 0.596954 0.190802
108 1 0.198232 0.682551 0.245967
417 1 0.652677 0.724745 0.233232
197 1 0.370443 0.792543 0.201574
483 1 0.647371 0.757949 0.216816
110 1 0.677571 0.827329 0.212779
109 1 0.858275 0.827478 0.242332
182 1 0.038175 0.885321 0.194127
43 1 0.12791 0.875083 0.16737
418 1 0.391063 0.833787 0.238635
447 1 0.825111 0.876695 0.232586
15 1 0.911131 0.883213 0.244339
237 1 0.845925 0.846664 0.245709
323 1 0.385454 0.972643 0.228594
227 1 0.36407 0.980957 0.239278
451 1 0.565348 0.978175 0.224496
230 1 0.727495 0.939571 0.218628
69 1 0.863431 0.979337 0.185118
50 1 0.267496 0.0224111 0.297569
163 1 0.359936 0.0162288 0.304818
282 1 0.346814 0.0726841 0.258808
285 1 0.789166 0.0571766 0.284586
307 1 0.890855 0.0408874 0.296603
242 1 0.891284 0.0686982 0.298402
165 1 0.971552 0.0790817 0.323666
333 1 0.0407324 0.110127 0.306277
326 1 0.345341 0.105821 0.328966
507 1 0.460659 0.0944049 0.327936
61 1 0.464646 0.139206 0.285123
239 1 0.748139 0.0840528 0.28989
135 1 0.435111 0.225405 0.323047
48 1 0.498606 0.196978 0.291888
92 1 0.724447 0.192928 0.253201
396 1 0.907664 0.18173 0.283796
283 1 0.0458249 0.255092 0.257569
6 1 0.362053 0.253329 0.321903
105 1 0.403134 0.265354 0.323566
422 1 0.532488 0.30654 0.323622
412 1 0.696478 0.306534 0.303382
155 1 0.781006 0.332266 0.3069
120 1 0.0456093 0.392286 0.260119
452 1 0.158134 0.361008 0.29066
360 1 0.185052 0.371119 0.305511
476 1 0.665308 0.380748 0.319272
261 1 0.780134 0.398559 0.326857
450 1 0.258145 0.470791 0.263994
284 1 0.496458 0.483654 0.279179
158 1 0.749581 0.427402 0.31115
435 1 0.483644 0.524527 0.275405
175 1 0.691739 0.550605 0.264521
159 1 0.722796 0.519324 0.275025
82 1 0.812644 0.542267 0.304415
177 1 0.377861 0.584915 0.321847
216 1 0.470403 0.633254 0.271226
497 1 0.424585 0.609685 0.320917
272 1 0.118912 0.708975 0.267603
325 1 0.260003 0.683257 0.266744
5 1 0.429187 0.693388 0.302856
478 1 0.64754 0.704721 0.250328
339 1 0.801255 0.710778 0.25649
85 1 0.0123199 0.828491 0.327706
466 1 0.22229 0.782421 0.324477
162 1 0.306052 0.760876 0.301066
421 1 0.374632 0.782004 0.269824
95 1 0.656561 0.824248 0.293346
8 1 0.119749 0.850513 0.258963
26 1 0.200425 0.912512 0.310914
192 1 0.233918 0.911766 0.297257
405 1 0.513972 0.888242 0.300721
219 1 0.198426 0.936307 0.286652
260 1 0.750635 0.92321 0.27009
395 1 0.133187 0.0706681 0.40961
389 1 0.241566 0.0754804 0.415289
286 1 0.324854 0.00812615 0.341024
88 1 0.617835 0.0678909 0.398541
232 1 0.0215801 0.14628 0.383859
94 1 0.11898 0.155464 0.402361
204 1 0.360142 0.0898164 0.339596
168 1 0.447068 0.15058 0.336406
504 1 0.554676 0.111564 0.385326
340 1 0.822217 0.165857 0.364273
138 1 0.230781 0.207066 0.350202
256 1 0.873231 0.169715 0.397691
444 1 0.535502 0.328577 0.340077
124 1 0.522948 0.331779 0.399748
300 1 0.648228 0.277865 0.33941
190 1 0.0135697 0.359938 0.381145
255 1 0.483085 0.408281 0.395071
118 1 0.736417 0.374829 0.367686
490 1 0.798583 0.349092 0.373028
212 1 0.222725 0.469552 0.352946
331 1 0.214642 0.483899 0.389522
203 1 0.387909 0.474838 0.401897
313 1 0.493069 0.438728 0.338295
401 1 0.733818 0.494826 0.346834
75 1 0.700107 0.460742 0.351584
275 1 0.932974 0.468738 0.351684
503 1 0.963637 0.489706 0.415803
477 1 0.640011 0.557434 0.412489
433 1 0.834694 0.519631 0.337613
461 1 0.36559 0.628711 0.367842
100 1 0.581407 0.604994 0.356442
436 1 0.546969 0.60053 0.401985
51 1 0.569734 0.60417 0.393785
70 1 0.723774 0.610985 0.348265
276 1 0.154312 0.729457 0.348356
34 1 0.328328 0.728956 0.365495
443 1 0.0192144 0.816114 0.346394
42 1 0.00432106 0.81248 0.36577
114 1 0.604069 0.806518 0.396866
291 1 0.980926 0.807799 0.361972
211 1 0.0259871 0.847213 0.379343
221 1 0.479907 0.88783 0.413218
371 1 0.566492 0.871002 0.359369
462 1 0.201151 0.92553 0.361049
66 1 0.388245 0.0274112 0.478565
35 1 0.599619 0.013065 0.423253
367 1 0.65281 0.00405931 0.419658
491 1 0.758018 0.0791619 0.436488
30 1 0.161115 0.12678 0.444292
133 1 0.115239 0.156531 0.437252
240 1 0.422921 0.121724 0.432704
185 1 0.036036 0.200965 0.483774
122 1 0.310063 0.235401 0.456739
464 1 0.519255 0.204767 0.498149
77 1 0.77832 0.177026 0.458816
297 1 0.0107397 0.315671 0.431056
167 1 0.384405 0.251524 0.4589
303 1 0.487911 0.255902 0.419441
139 1 0.153458 0.400046 0.440174
152 1 0.166981 0.386211 0.473294
264 1 0.315176 0.398986 0.433847
295 1 0.312994 0.358435 0.494
349 1 0.346321 0.388913 0.479177
488 1 0.752028 0.418716 0.441015
83 1 0.75378 0.436109 0.464891
236 1 0.867976 0.419768 0.418133
160 1 0.264247 0.578498 0.418072
290 1 0.244702 0.593984 0.456162
220 1 0.501403 0.62435 0.46026
508 1 0.632007 0.690005 0.480591
45 1 0.882117 0.747501 0.447535
310 1 0.0193294 0.811967 0.450424
492 1 0.173553 0.752238 0.463364
174 1 0.541744 0.788829 0.470657
419 1 0.240525 0.851783 0.47365
494 1 0.240791 0.927906 0.449131
32 1 0.0995353 0.0358898 0.570465
127 1 0.431363 0.0341439 0.507406
49 1 0.556199 0.068078 0.54241
180 1 0.548875 0.00680353 0.562624
214 1 0.664498 0.0115353 0.518621
136 1 0.692156 0.0334108 0.51012
289 1 0.910711 0.0154051 0.531656
472 1 0.073821 0.0998343 0.558866
119 1 0.55659 0.199182 0.581133
238 1 0.392082 0.256798 0.501224
426 1 0.568022 0.290423 0.553987
202 1 0.737188 0.288116 0.527757
97 1 0.949022 0.310089 0.504148
296 1 0.97963 0.297177 0.517973
241 1 0.108758 0.43016 0.520368
374 1 0.887884 0.442732 0.521832
474 1 0.173074 0.56563 0.523045
400 1 0.454436 0.557328 0.548463
215 1 0.905802 0.556743 0.581785
484 1 0.856165 0.516989 0.5016
44 1 0.41404 0.656101 0.573177
362 1 0.00138224 0.714233 0.562026
273 1 0.144174 0.674028 0.582573
217 1 0.390567 0.670463 0.534279
471 1 0.783421 0.683093 0.580233
253 1 0.538527 0.832144 0.578465
390 1 0.752317 0.776213 0.519275
55 1 0.756955 0.76834 0.539962
74 1 0.255464 0.895582 0.527052
439 1 0.546234 0.899459 0.533247
113 1 0.74426 0.885031 0.501002
336 1 0.571407 0.920227 0.567906
189 1 0.89237 0.975906 0.535237
89 1 0.107888 0.049903 0.634319
246 1 0.33244 0.0434756 0.584116
355 1 0.807225 0.0239136 0.644948
437 1 0.264688 0.121625 0.644733
302 1 0.878263 0.126278 0.637818
171 1 0.834231 0.111361 0.604189
93 1 0.948702 0.143887 0.605257
376 1 0.377843 0.176513 0.646672
99 1 0.333629 0.395127 0.651136
60 1 0.496737 0.384714 0.660131
403 1 0.541338 0.379704 0.615061
430 1 0.543685 0.410294 0.623092
442 1 0.844777 0.415755 0.591676
46 1 0.921241 0.412854 0.639368
469 1 0.253709 0.470449 0.653475
54 1 0.374323 0.440736 0.594175
28 1 0.636705 0.484585 0.590666
413 1 0.912557 0.437949 0.630186
87 1 0.447797 0.53106 0.611347
432 1 0.452891 0.535456 0.652019
141 1 0.648379 0.526519 0.598892
316 1 0.825579 0.518486 0.599993
368 1 0.0620102 0.626711 0.58699
68 1 0.276817 0.611061 0.643616
269 1 0.909226 0.599957 0.610898
358 1 0.0765354 0.669653 0.608077
392 1 0.129998 0.694927 0.626373
346 1 0.301037 0.685645 0.610178
143 1 0.399069 0.738243 0.661591
402 1 0.361479 0.736473 0.600948
198 1 0.54729 0.702808 0.594252
154 1 0.571428 0.683385 0.591402
90 1 0.685142 0.71103 0.664421
457 1 0.236826 0.79409 0.654834
324 1 0.360866 0.759619 0.614717
183 1 0.684369 0.832176 0.633654
327 1 0.179005 0.889722 0.60593
111 1 0.558521 0.906373 0.64094
101 1 0.58676 0.915516 0.590423
262 1 0.706051 0.868251 0.653762
320 1 0.879761 0.947916 0.662336
254 1 0.535332 0.0366623 0.718997
9 1 0.572225 0.0169264 0.706106
188 1 0.632498 0.0793968 0.749331
409 1 0.726331 0.0164336 0.721993
13 1 0.759024 0.0340805 0.742825
384 1 0.637145 0.0985893 0.727927
266 1 0.62307 0.117276 0.749892
132 1 0.651986 0.122748 0.712488
107 1 0.634105 0.137733 0.748856
288 1 0.594227 0.114415 0.689091
38 1 0.630588 0.124554 0.726625
387 1 0.650506 0.120846 0.737154
292 1 0.921754 0.148567 0.700395
366 1 0.617096 0.188068 0.67685
375 1 0.862079 0.18744 0.718187
381 1 0.144989 0.288054 0.703218
59 1 0.175643 0.269235 0.724293
423 1 0.534368 0.314872 0.708121
62 1 0.650596 0.305104 0.685736
499 1 0.617152 0.257238 0.688765
116 1 0.751538 0.312891 0.667382
460 1 0.985252 0.298074 0.731997
125 1 0.48891 0.392493 0.700835
429 1 0.470718 0.356327 0.746016
201 1 0.414112 0.440536 0.709887
486 1 0.537313 0.452642 0.700215
328 1 0.648384 0.447631 0.735279
301 1 0.654183 0.420487 0.686617
280 1 0.620278 0.45689 0.74699
279 1 0.0162946 0.545737 0.739517
76 1 0.841732 0.551341 0.736114
481 1 0.0021154 0.599712 0.702775
37 1 0.57967 0.589062 0.712187