LAMMPS data file, version 2023-ICMS, timestep = unkown

512 atoms

1 atom types

0 40.0 xlo xhi
0 40.0 ylo yhi
0 40.0 zlo zhi

Masses

1 1.0
Atoms

1 1   2.500   2.500   2.500
2 1   2.500   2.500   7.500
3 1   2.500   2.500  12.500
4 1   2.500   2.500  17.500
5 1   2.500   2.500  22.500
6 1   2.500   2.500  27.500
7 1   2.500   2.500  32.500
8 1   2.500   2.500  37.500
9 1   2.500   7.500   2.500
10 1   2.500   7.500   7.500
11 1   2.500   7.500  12.500
12 1   2.500   7.500  17.500
13 1   2.500   7.500  22.500
14 1   2.500   7.500  27.500
15 1   2.500   7.500  32.500
16 1   2.500   7.500  37.500
17 1   2.500  12.500   2.500
18 1   2.500  12.500   7.500
19 1   2.500  12.500  12.500
20 1   2.500  12.500  17.500
21 1   2.500  12.500  22.500
22 1   2.500  12.500  27.500
23 1   2.500  12.500  32.500
24 1   2.500  12.500  37.500
25 1   2.500  17.500   2.500
26 1   2.500  17.500   7.500
27 1   2.500  17.500  12.500
28 1   2.500  17.500  17.500
29 1   2.500  17.500  22.500
30 1   2.500  17.500  27.500
31 1   2.500  17.500  32.500
32 1   2.500  17.500  37.500
33 1   2.500  22.500   2.500
34 1   2.500  22.500   7.500
35 1   2.500  22.500  12.500
36 1   2.500  22.500  17.500
37 1   2.500  22.500  22.500
38 1   2.500  22.500  27.500
39 1   2.500  22.500  32.500
40 1   2.500  22.500  37.500
41 1   2.500  27.500   2.500
42 1   2.500  27.500   7.500
43 1   2.500  27.500  12.500
44 1   2.500  27.500  17.500
45 1   2.500  27.500  22.500
46 1   2.500  27.500  27.500
47 1   2.500  27.500  32.500
48 1   2.500  27.500  37.500
49 1   2.500  32.500   2.500
50 1   2.500  32.500   7.500
51 1   2.500  32.500  12.500
52 1   2.500  32.500  17.500
53 1   2.500  32.500  22.500
54 1   2.500  32.500  27.500
55 1   2.500  32.500  32.500
56 1   2.500  32.500  37.500
57 1   2.500  37.500   2.500
58 1   2.500  37.500   7.500
59 1   2.500  37.500  12.500
60 1   2.500  37.500  17.500
61 1   2.500  37.500  22.500
62 1   2.500  37.500  27.500
63 1   2.500  37.500  32.500
64 1   2.500  37.500  37.500
65 1   7.500   2.500   2.500
66 1   7.500   2.500   7.500
67 1   7.500   2.500  12.500
68 1   7.500   2.500  17.500
69 1   7.500   2.500  22.500
70 1   7.500   2.500  27.500
71 1   7.500   2.500  32.500
72 1   7.500   2.500  37.500
73 1   7.500   7.500   2.500
74 1   7.500   7.500   7.500
75 1   7.500   7.500  12.500
76 1   7.500   7.500  17.500
77 1   7.500   7.500  22.500
78 1   7.500   7.500  27.500
79 1   7.500   7.500  32.500
80 1   7.500   7.500  37.500
81 1   7.500  12.500   2.500
82 1   7.500  12.500   7.500
83 1   7.500  12.500  12.500
84 1   7.500  12.500  17.500
85 1   7.500  12.500  22.500
86 1   7.500  12.500  27.500
87 1   7.500  12.500  32.500
88 1   7.500  12.500  37.500
89 1   7.500  17.500   2.500
90 1   7.500  17.500   7.500
91 1   7.500  17.500  12.500
92 1   7.500  17.500  17.500
93 1   7.500  17.500  22.500
94 1   7.500  17.500  27.500
95 1   7.500  17.500  32.500
96 1   7.500  17.500  37.500
97 1   7.500  22.500   2.500
98 1   7.500  22.500   7.500
99 1   7.500  22.500  12.500
100 1   7.500  22.500  17.500
101 1   7.500  22.500  22.500
102 1   7.500  22.500  27.500
103 1   7.500  22.500  32.500
104 1   7.500  22.500  37.500
105 1   7.500  27.500   2.500
106 1   7.500  27.500   7.500
107 1   7.500  27.500  12.500
108 1   7.500  27.500  17.500
109 1   7.500  27.500  22.500
110 1   7.500  27.500  27.500
111 1   7.500  27.500  32.500
112 1   7.500  27.500  37.500
113 1   7.500  32.500   2.500
114 1   7.500  32.500   7.500
115 1   7.500  32.500  12.500
116 1   7.500  32.500  17.500
117 1   7.500  32.500  22.500
118 1   7.500  32.500  27.500
119 1   7.500  32.500  32.500
120 1   7.500  32.500  37.500
121 1   7.500  37.500   2.500
122 1   7.500  37.500   7.500
123 1   7.500  37.500  12.500
124 1   7.500  37.500  17.500
125 1   7.500  37.500  22.500
126 1   7.500  37.500  27.500
127 1   7.500  37.500  32.500
128 1   7.500  37.500  37.500
129 1  12.500   2.500   2.500
130 1  12.500   2.500   7.500
131 1  12.500   2.500  12.500
132 1  12.500   2.500  17.500
133 1  12.500   2.500  22.500
134 1  12.500   2.500  27.500
135 1  12.500   2.500  32.500
136 1  12.500   2.500  37.500
137 1  12.500   7.500   2.500
138 1  12.500   7.500   7.500
139 1  12.500   7.500  12.500
140 1  12.500   7.500  17.500
141 1  12.500   7.500  22.500
142 1  12.500   7.500  27.500
143 1  12.500   7.500  32.500
144 1  12.500   7.500  37.500
145 1  12.500  12.500   2.500
146 1  12.500  12.500   7.500
147 1  12.500  12.500  12.500
148 1  12.500  12.500  17.500
149 1  12.500  12.500  22.500
150 1  12.500  12.500  27.500
151 1  12.500  12.500  32.500
152 1  12.500  12.500  37.500
153 1  12.500  17.500   2.500
154 1  12.500  17.500   7.500
155 1  12.500  17.500  12.500
156 1  12.500  17.500  17.500
157 1  12.500  17.500  22.500
158 1  12.500  17.500  27.500
159 1  12.500  17.500  32.500
160 1  12.500  17.500  37.500
161 1  12.500  22.500   2.500
162 1  12.500  22.500   7.500
163 1  12.500  22.500  12.500
164 1  12.500  22.500  17.500
165 1  12.500  22.500  22.500
166 1  12.500  22.500  27.500
167 1  12.500  22.500  32.500
168 1  12.500  22.500  37.500
169 1  12.500  27.500   2.500
170 1  12.500  27.500   7.500
171 1  12.500  27.500  12.500
172 1  12.500  27.500  17.500
173 1  12.500  27.500  22.500
174 1  12.500  27.500  27.500
175 1  12.500  27.500  32.500
176 1  12.500  27.500  37.500
177 1  12.500  32.500   2.500
178 1  12.500  32.500   7.500
179 1  12.500  32.500  12.500
180 1  12.500  32.500  17.500
181 1  12.500  32.500  22.500
182 1  12.500  32.500  27.500
183 1  12.500  32.500  32.500
184 1  12.500  32.500  37.500
185 1  12.500  37.500   2.500
186 1  12.500  37.500   7.500
187 1  12.500  37.500  12.500
188 1  12.500  37.500  17.500
189 1  12.500  37.500  22.500
190 1  12.500  37.500  27.500
191 1  12.500  37.500  32.500
192 1  12.500  37.500  37.500
193 1  17.500   2.500   2.500
194 1  17.500   2.500   7.500
195 1  17.500   2.500  12.500
196 1  17.500   2.500  17.500
197 1  17.500   2.500  22.500
198 1  17.500   2.500  27.500
199 1  17.500   2.500  32.500
200 1  17.500   2.500  37.500
201 1  17.500   7.500   2.500
202 1  17.500   7.500   7.500
203 1  17.500   7.500  12.500
204 1  17.500   7.500  17.500
205 1  17.500   7.500  22.500
206 1  17.500   7.500  27.500
207 1  17.500   7.500  32.500
208 1  17.500   7.500  37.500
209 1  17.500  12.500   2.500
210 1  17.500  12.500   7.500
211 1  17.500  12.500  12.500
212 1  17.500  12.500  17.500
213 1  17.500  12.500  22.500
214 1  17.500  12.500  27.500
215 1  17.500  12.500  32.500
216 1  17.500  12.500  37.500
217 1  17.500  17.500   2.500
218 1  17.500  17.500   7.500
219 1  17.500  17.500  12.500
220 1  17.500  17.500  17.500
221 1  17.500  17.500  22.500
222 1  17.500  17.500  27.500
223 1  17.500  17.500  32.500
224 1  17.500  17.500  37.500
225 1  17.500  22.500   2.500
226 1  17.500  22.500   7.500
227 1  17.500  22.500  12.500
228 1  17.500  22.500  17.500
229 1  17.500  22.500  22.500
230 1  17.500  22.500  27.500
231 1  17.500  22.500  32.500
232 1  17.500  22.500  37.500
233 1  17.500  27.500   2.500
234 1  17.500  27.500   7.500
235 1  17.500  27.500  12.500
236 1  17.500  27.500  17.500
237 1  17.500  27.500  22.500
238 1  17.500  27.500  27.500
239 1  17.500  27.500  32.500
240 1  17.500  27.500  37.500
241 1  17.500  32.500   2.500
242 1  17.500  32.500   7.500
243 1  17.500  32.500  12.500
244 1  17.500  32.500  17.500
245 1  17.500  32.500  22.500
246 1  17.500  32.500  27.500
247 1  17.500  32.500  32.500
248 1  17.500  32.500  37.500
249 1  17.500  37.500   2.500
250 1  17.500  37.500   7.500
251 1  17.500  37.500  12.500
252 1  17.500  37.500  17.500
253 1  17.500  37.500  22.500
254 1  17.500  37.500  27.500
255 1  17.500  37.500  32.500
256 1  17.500  37.500  37.500
257 1  22.500   2.500   2.500
258 1  22.500   2.500   7.500
259 1  22.500   2.500  12.500
260 1  22.500   2.500  17.500
261 1  22.500   2.500  22.500
262 1  22.500   2.500  27.500
263 1  22.500   2.500  32.500
264 1  22.500   2.500  37.500
265 1  22.500   7.500   2.500
266 1  22.500   7.500   7.500
267 1  22.500   7.500  12.500
268 1  22.500   7.500  17.500
269 1  22.500   7.500  22.500
270 1  22.500   7.500  27.500
271 1  22.500   7.500  32.500
272 1  22.500   7.500  37.500
273 1  22.500  12.500   2.500
274 1  22.500  12.500   7.500
275 1  22.500  12.500  12.500
276 1  22.500  12.500  17.500
277 1  22.500  12.500  22.500
278 1  22.500  12.500  27.500
279 1  22.500  12.500  32.500
280 1  22.500  12.500  37.500
281 1  22.500  17.500   2.500
282 1  22.500  17.500   7.500
283 1  22.500  17.500  12.500
284 1  22.500  17.500  17.500
285 1  22.500  17.500  22.500
286 1  22.500  17.500  27.500
287 1  22.500  17.500  32.500
288 1  22.500  17.500  37.500
289 1  22.500  22.500   2.500
290 1  22.500  22.500   7.500
291 1  22.500  22.500  12.500
292 1  22.500  22.500  17.500
293 1  22.500  22.500  22.500
294 1  22.500  22.500  27.500
295 1  22.500  22.500  32.500
296 1  22.500  22.500  37.500
297 1  22.500  27.500   2.500
298 1  22.500  27.500   7.500
299 1  22.500  27.500  12.500
300 1  22.500  27.500  17.500
301 1  22.500  27.500  22.500
302 1  22.500  27.500  27.500
303 1  22.500  27.500  32.500
304 1  22.500  27.500  37.500
305 1  22.500  32.500   2.500
306 1  22.500  32.500   7.500
307 1  22.500  32.500  12.500
308 1  22.500  32.500  17.500
309 1  22.500  32.500  22.500
310 1  22.500  32.500  27.500
311 1  22.500  32.500  32.500
312 1  22.500  32.500  37.500
313 1  22.500  37.500   2.500
314 1  22.500  37.500   7.500
315 1  22.500  37.500  12.500
316 1  22.500  37.500  17.500
317 1  22.500  37.500  22.500
318 1  22.500  37.500  27.500
319 1  22.500  37.500  32.500
320 1  22.500  37.500  37.500
321 1  27.500   2.500   2.500
322 1  27.500   2.500   7.500
323 1  27.500   2.500  12.500
324 1  27.500   2.500  17.500
325 1  27.500   2.500  22.500
326 1  27.500   2.500  27.500
327 1  27.500   2.500  32.500
328 1  27.500   2.500  37.500
329 1  27.500   7.500   2.500
330 1  27.500   7.500   7.500
331 1  27.500   7.500  12.500
332 1  27.500   7.500  17.500
333 1  27.500   7.500  22.500
334 1  27.500   7.500  27.500
335 1  27.500   7.500  32.500
336 1  27.500   7.500  37.500
337 1  27.500  12.500   2.500
338 1  27.500  12.500   7.500
339 1  27.500  12.500  12.500
340 1  27.500  12.500  17.500
341 1  27.500  12.500  22.500
342 1  27.500  12.500  27.500
343 1  27.500  12.500  32.500
344 1  27.500  12.500  37.500
345 1  27.500  17.500   2.500
346 1  27.500  17.500   7.500
347 1  27.500  17.500  12.500
348 1  27.500  17.500  17.500
349 1  27.500  17.500  22.500
350 1  27.500  17.500  27.500
351 1  27.500  17.500  32.500
352 1  27.500  17.500  37.500
353 1  27.500  22.500   2.500
354 1  27.500  22.500   7.500
355 1  27.500  22.500  12.500
356 1  27.500  22.500  17.500
357 1  27.500  22.500  22.500
358 1  27.500  22.500  27.500
359 1  27.500  22.500  32.500
360 1  27.500  22.500  37.500
361 1  27.500  27.500   2.500
362 1  27.500  27.500   7.500
363 1  27.500  27.500  12.500
364 1  27.500  27.500  17.500
365 1  27.500  27.500  22.500
366 1  27.500  27.500  27.500
367 1  27.500  27.500  32.500
368 1  27.500  27.500  37.500
369 1  27.500  32.500   2.500
370 1  27.500  32.500   7.500
371 1  27.500  32.500  12.500
372 1  27.500  32.500  17.500
373 1  27.500  32.500  22.500
374 1  27.500  32.500  27.500
375 1  27.500  32.500  32.500
376 1  27.500  32.500  37.500
377 1  27.500  37.500   2.500
378 1  27.500  37.500   7.500
379 1  27.500  37.500  12.500
380 1  27.500  37.500  17.500
381 1  27.500  37.500  22.500
382 1  27.500  37.500  27.500
383 1  27.500  37.500  32.500
384 1  27.500  37.500  37.500
385 1  32.500   2.500   2.500
386 1  32.500   2.500   7.500
387 1  32.500   2.500  12.500
388 1  32.500   2.500  17.500
389 1  32.500   2.500  22.500
390 1  32.500   2.500  27.500
391 1  32.500   2.500  32.500
392 1  32.500   2.500  37.500
393 1  32.500   7.500   2.500
394 1  32.500   7.500   7.500
395 1  32.500   7.500  12.500
396 1  32.500   7.500  17.500
397 1  32.500   7.500  22.500
398 1  32.500   7.500  27.500
399 1  32.500   7.500  32.500
400 1  32.500   7.500  37.500
401 1  32.500  12.500   2.500
402 1  32.500  12.500   7.500
403 1  32.500  12.500  12.500
404 1  32.500  12.500  17.500
405 1  32.500  12.500  22.500
406 1  32.500  12.500  27.500
407 1  32.500  12.500  32.500
408 1  32.500  12.500  37.500
409 1  32.500  17.500   2.500
410 1  32.500  17.500   7.500
411 1  32.500  17.500  12.500
412 1  32.500  17.500  17.500
413 1  32.500  17.500  22.500
414 1  32.500  17.500  27.500
415 1  32.500  17.500  32.500
416 1  32.500  17.500  37.500
417 1  32.500  22.500   2.500
418 1  32.500  22.500   7.500
419 1  32.500  22.500  12.500
420 1  32.500  22.500  17.500
421 1  32.500  22.500  22.500
422 1  32.500  22.500  27.500
423 1  32.500  22.500  32.500
424 1  32.500  22.500  37.500
425 1  32.500  27.500   2.500
426 1  32.500  27.500   7.500
427 1  32.500  27.500  12.500
428 1  32.500  27.500  17.500
429 1  32.500  27.500  22.500
430 1  32.500  27.500  27.500
431 1  32.500  27.500  32.500
432 1  32.500  27.500  37.500
433 1  32.500  32.500   2.500
434 1  32.500  32.500   7.500
435 1  32.500  32.500  12.500
436 1  32.500  32.500  17.500
437 1  32.500  32.500  22.500
438 1  32.500  32.500  27.500
439 1  32.500  32.500  32.500
440 1  32.500  32.500  37.500
441 1  32.500  37.500   2.500
442 1  32.500  37.500   7.500
443 1  32.500  37.500  12.500
444 1  32.500  37.500  17.500
445 1  32.500  37.500  22.500
446 1  32.500  37.500  27.500
447 1  32.500  37.500  32.500
448 1  32.500  37.500  37.500
449 1  37.500   2.500   2.500
450 1  37.500   2.500   7.500
451 1  37.500   2.500  12.500
452 1  37.500   2.500  17.500
453 1  37.500   2.500  22.500
454 1  37.500   2.500  27.500
455 1  37.500   2.500  32.500
456 1  37.500   2.500  37.500
457 1  37.500   7.500   2.500
458 1  37.500   7.500   7.500
459 1  37.500   7.500  12.500
460 1  37.500   7.500  17.500
461 1  37.500   7.500  22.500
462 1  37.500   7.500  27.500
463 1  37.500   7.500  32.500
464 1  37.500   7.500  37.500
465 1  37.500  12.500   2.500
466 1  37.500  12.500   7.500
467 1  37.500  12.500  12.500
468 1  37.500  12.500  17.500
469 1  37.500  12.500  22.500
470 1  37.500  12.500  27.500
471 1  37.500  12.500  32.500
472 1  37.500  12.500  37.500
473 1  37.500  17.500   2.500
474 1  37.500  17.500   7.500
475 1  37.500  17.500  12.500
476 1  37.500  17.500  17.500
477 1  37.500  17.500  22.500
478 1  37.500  17.500  27.500
479 1  37.500  17.500  32.500
480 1  37.500  17.500  37.500
481 1  37.500  22.500   2.500
482 1  37.500  22.500   7.500
483 1  37.500  22.500  12.500
484 1  37.500  22.500  17.500
485 1  37.500  22.500  22.500
486 1  37.500  22.500  27.500
487 1  37.500  22.500  32.500
488 1  37.500  22.500  37.500
489 1  37.500  27.500   2.500
490 1  37.500  27.500   7.500
491 1  37.500  27.500  12.500
492 1  37.500  27.500  17.500
493 1  37.500  27.500  22.500
494 1  37.500  27.500  27.500
495 1  37.500  27.500  32.500
496 1  37.500  27.500  37.500
497 1  37.500  32.500   2.500
498 1  37.500  32.500   7.500
499 1  37.500  32.500  12.500
500 1  37.500  32.500  17.500
501 1  37.500  32.500  22.500
502 1  37.500  32.500  27.500
503 1  37.500  32.500  32.500
504 1  37.500  32.500  37.500
505 1  37.500  37.500   2.500
506 1  37.500  37.500   7.500
507 1  37.500  37.500  12.500
508 1  37.500  37.500  17.500
509 1  37.500  37.500  22.500
510 1  37.500  37.500  27.500
511 1  37.500  37.500  32.500
512 1  37.500  37.500  37.500
