ITEM: TIMESTEP
0
ITEM: NUMBER OF ATOMS
512
ITEM: BOX BOUNDS pp pp pp
0.0000000000000000e+00 4.0000000000000000e+01
0.0000000000000000e+00 4.0000000000000000e+01
0.0000000000000000e+00 4.0000000000000000e+01
ITEM: ATOMS id type xs ys zs
376 1 0.982278 0.0223023 0.00312883
372 1 0.0119993 0.16432 0.0475773
85 1 0.715679 0.0910769 0.0111509
194 1 0.695459 0.141734 0.0220585
241 1 0.705161 0.116847 0.0582893
250 1 0.964244 0.151941 0.0188102
168 1 0.374032 0.249406 0.0540145
243 1 0.904104 0.204379 0.0269536
411 1 0.1794 0.265144 0.0341529
133 1 0.353709 0.259058 0.0648684
193 1 0.462852 0.306763 0.0388314
169 1 0.855029 0.310849 0.0805034
367 1 0.278177 0.392184 0.0328044
349 1 0.349237 0.405259 0.0717462
130 1 0.722548 0.347437 0.00695809
86 1 0.167452 0.422922 0.0173421
52 1 0.823314 0.42114 0.0213579
49 1 0.0605989 0.50561 0.0697482
300 1 0.141385 0.533847 0.0315914
150 1 0.0959475 0.604431 0.0581186
145 1 0.606813 0.585719 0.0629214
500 1 0.944353 0.635364 0.012791
39 1 0.0138629 0.709979 0.00301983
125 1 0.112889 0.740181 0.0454403
220 1 0.239126 0.669371 0.0474898
137 1 0.332736 0.741324 0.0620941
346 1 0.527156 0.73258 0.0400781
221 1 0.763037 0.715478 0.0188061
306 1 0.390714 0.832214 0.0557616
438 1 0.360507 0.835025 0.0164159
212 1 0.337667 0.840258 0.0078271
340 1 0.425371 0.834677 0.0677477
24 1 0.445876 0.87496 0.0379379
101 1 0.658829 0.875781 0.00605762
256 1 0.926905 0.857911 0.0141665
491 1 0.968384 0.863256 0.0355584
106 1 0.157214 0.985782 0.00646187
444 1 0.374546 0.967691 0.0644008
262 1 0.336387 0.972334 0.0420649
267 1 0.75856 0.984895 0.0676359
353 1 0.0866841 0.0192989 0.0972229
348 1 0.488501 0.0200196 0.0869206
97 1 0.675329 0.0329262 0.136498
136 1 0.569499 0.154642 0.102778
154 1 0.555807 0.135042 0.0955155
398 1 0.425373 0.224234 0.162125
506 1 0.581751 0.20231 0.1154
383 1 0.986944 0.180326 0.156059
226 1 0.125881 0.299349 0.156122
74 1 0.2106 0.282026 0.126266
40 1 0.191123 0.331233 0.164056
14 1 0.31822 0.266611 0.108595
114 1 0.635071 0.256784 0.0945267
294 1 0.629534 0.287852 0.130569
146 1 0.83518 0.310071 0.0987366
159 1 0.858309 0.301576 0.102984
473 1 0.851854 0.324498 0.109856
63 1 0.147306 0.351803 0.084532
172 1 0.356534 0.342405 0.147619
457 1 0.711926 0.443458 0.117955
338 1 0.839477 0.499753 0.134039
401 1 0.0412204 0.541702 0.139434
3 1 0.573918 0.534927 0.131927
42 1 0.83421 0.535726 0.133504
315 1 0.918998 0.581078 0.119102
288 1 0.324972 0.625598 0.0926615
163 1 0.344133 0.639129 0.0839786
493 1 0.360006 0.659006 0.110788
259 1 0.570808 0.641086 0.145254
378 1 0.368072 0.682696 0.10962
236 1 0.438319 0.736021 0.100712
501 1 0.145249 0.797503 0.0949704
69 1 0.192046 0.788218 0.0990988
177 1 0.291901 0.754497 0.110962
158 1 0.646648 0.82423 0.130762
443 1 0.741002 0.791227 0.10414
483 1 0.814979 0.782622 0.149047
370 1 0.90476 0.799749 0.125479
12 1 0.117424 0.870035 0.139703
468 1 0.894305 0.87909 0.0847171
292 1 0.937291 0.841178 0.0957079
109 1 0.145246 0.961874 0.0986365
334 1 0.340786 0.930956 0.121761
281 1 0.565991 0.924898 0.087272
224 1 0.075809 0.0141248 0.223063
458 1 0.587944 0.018515 0.220963
55 1 0.157899 0.123899 0.204165
374 1 0.407435 0.208429 0.168421
283 1 0.417425 0.20057 0.20401
126 1 0.425747 0.213267 0.184539
336 1 0.948347 0.198857 0.183414
253 1 0.541377 0.275269 0.186332
477 1 0.539734 0.264747 0.208925
388 1 0.621889 0.296242 0.19968
237 1 0.6895 0.290876 0.229853
144 1 0.159171 0.379412 0.167976
489 1 0.629118 0.336137 0.204286
182 1 0.644594 0.351499 0.19203
211 1 0.808952 0.360066 0.208932
41 1 0.799202 0.346031 0.190719
79 1 0.0736941 0.443346 0.16932
298 1 0.0887834 0.462548 0.178979
68 1 0.575037 0.495823 0.223482
303 1 0.634796 0.46981 0.216745
455 1 0.667693 0.470563 0.220843
93 1 0.68192 0.466247 0.20071
404 1 0.692762 0.46893 0.222993
208 1 0.962924 0.443856 0.205733
469 1 0.383389 0.576556 0.209479
407 1 0.783653 0.581861 0.227912
413 1 0.270702 0.607315 0.180378
4 1 0.259191 0.604261 0.235844
64 1 0.783438 0.602667 0.241718
249 1 0.60329 0.710598 0.229265
195 1 0.694628 0.691211 0.198246
293 1 0.675019 0.720992 0.201501
426 1 0.689598 0.707434 0.216396
321 1 0.887742 0.733923 0.216961
446 1 0.0156905 0.799254 0.202012
183 1 0.0154042 0.799049 0.226984
337 1 0.480593 0.799554 0.18205
454 1 0.93542 0.823407 0.245023
156 1 0.832381 0.844828 0.242638
13 1 0.846459 0.871366 0.192165
496 1 0.217157 0.998603 0.187052
17 1 0.474321 0.96317 0.205171
191 1 0.669205 0.996549 0.224851
505 1 0.22682 0.0102901 0.268655
134 1 0.476685 0.0102987 0.250532
111 1 0.655989 0.0301341 0.330297
112 1 0.587416 0.0186996 0.324932
437 1 0.986398 0.0262493 0.302876
428 1 0.640481 0.13475 0.324726
319 1 0.65405 0.155343 0.320783
478 1 0.700717 0.142851 0.302632
410 1 0.944879 0.107042 0.287448
188 1 0.929113 0.235222 0.290411
107 1 0.579935 0.272071 0.259868
120 1 0.514173 0.303827 0.292031
274 1 0.178008 0.3899 0.293767
26 1 0.233097 0.33343 0.322367
233 1 0.269697 0.386126 0.318527
366 1 0.728155 0.363616 0.28905
270 1 0.319697 0.484812 0.28563
482 1 0.188475 0.52261 0.272418
361 1 0.179133 0.57001 0.317623
147 1 0.860443 0.566276 0.259245
358 1 0.747171 0.585767 0.295435
29 1 0.143616 0.710857 0.265558
480 1 0.624909 0.712711 0.289692
98 1 0.716364 0.720284 0.288891
289 1 0.756411 0.682054 0.315724
420 1 0.619289 0.818348 0.278484
324 1 0.746845 0.827224 0.257224
295 1 0.739416 0.753377 0.305902
47 1 0.825643 0.821343 0.323539
440 1 0.0198195 0.852197 0.269276
190 1 0.155086 0.914808 0.332493
341 1 0.186851 0.83407 0.292092
512 1 0.272902 0.916342 0.324601
268 1 0.368678 0.89655 0.263111
316 1 0.641687 0.861258 0.291914
379 1 0.906709 0.864538 0.317449
447 1 0.172758 0.917022 0.281881
350 1 0.438267 0.926903 0.321983
359 1 0.616456 0.966646 0.274301
445 1 0.583532 0.935582 0.311019
167 1 0.707782 0.939208 0.290681
311 1 0.301074 0.0537487 0.397432
87 1 0.454938 0.0540421 0.382525
471 1 0.649462 0.0786195 0.363107
83 1 0.124805 0.084675 0.371956
121 1 0.18853 0.136751 0.401576
184 1 0.281908 0.0861762 0.383603
333 1 0.686001 0.128203 0.401892
228 1 0.717996 0.127955 0.380903
157 1 0.801498 0.12282 0.390822
139 1 0.870191 0.113685 0.390843
465 1 0.363819 0.200405 0.414078
360 1 0.404337 0.182345 0.387769
110 1 0.254744 0.300858 0.346614
5 1 0.316867 0.272082 0.415393
301 1 0.354848 0.31303 0.394065
481 1 0.363066 0.332595 0.407233
88 1 0.629184 0.264528 0.380631
362 1 0.843859 0.27033 0.36342
32 1 0.69522 0.408073 0.400829
279 1 0.284768 0.428149 0.372788
425 1 0.537651 0.438868 0.345913
345 1 0.533632 0.420048 0.361827
347 1 0.61158 0.471859 0.391201
414 1 0.285016 0.562967 0.369328
48 1 0.646475 0.570303 0.369544
73 1 0.841486 0.545412 0.3514
116 1 0.99949 0.550803 0.344451
18 1 0.625459 0.58337 0.36902
461 1 0.958744 0.661436 0.376848
135 1 0.19254 0.673537 0.358725
322 1 0.312954 0.745917 0.340856
166 1 0.353309 0.709507 0.36601
507 1 0.510086 0.722179 0.343359
31 1 0.201502 0.765767 0.40304
230 1 0.341574 0.839069 0.342532
201 1 0.545687 0.846781 0.389131
16 1 0.487112 0.975494 0.385684
196 1 0.520499 0.956935 0.350746
332 1 0.994517 0.961262 0.335505
435 1 0.487372 0.0363955 0.461825
252 1 0.205242 0.0856443 0.475819
287 1 0.474308 0.0976935 0.435569
318 1 0.780509 0.156347 0.436956
153 1 0.919831 0.101635 0.441381
432 1 0.748622 0.230983 0.463206
405 1 0.987848 0.224426 0.460255
103 1 0.188505 0.255439 0.422959
467 1 0.818241 0.327757 0.440669
44 1 0.816218 0.310025 0.42332
244 1 0.726758 0.388006 0.44218
476 1 0.6734 0.373359 0.438807
25 1 0.809231 0.336866 0.462008
389 1 0.805053 0.42507 0.487838
179 1 0.0155969 0.513807 0.480491
9 1 0.00332926 0.530702 0.497288
386 1 0.610192 0.548293 0.452669
452 1 0.987201 0.582038 0.491907
427 1 0.159476 0.632811 0.426285
254 1 0.437037 0.653104 0.488392
451 1 0.846312 0.662505 0.419394
113 1 0.914651 0.587677 0.434987
33 1 0.714677 0.741178 0.42051
330 1 0.818107 0.74936 0.484208
50 1 0.0880685 0.785986 0.481961
472 1 0.630043 0.756422 0.44642
161 1 0.948279 0.761179 0.483493
408 1 0.717119 0.846311 0.422713
310 1 0.429677 0.936986 0.480466
375 1 0.992222 0.966241 0.481415
351 1 0.144386 0.032921 0.510432
197 1 0.313832 0.0801583 0.580372
99 1 0.300833 0.00349154 0.51477
160 1 0.286753 0.0402188 0.53779
214 1 0.29161 0.0265376 0.517466
320 1 0.352155 0.0558092 0.522894
429 1 0.800925 0.0308972 0.558492
276 1 0.175476 0.0862558 0.546409
494 1 0.375047 0.119434 0.561187
70 1 0.976304 0.14646 0.542904
148 1 0.978351 0.107979 0.54063
170 1 0.618263 0.224076 0.566705
200 1 0.704874 0.170851 0.509491
450 1 0.870276 0.185434 0.568136
412 1 0.257413 0.291996 0.537819
313 1 0.524989 0.342773 0.50167
364 1 0.680326 0.386673 0.505038
307 1 0.670144 0.383059 0.545575
397 1 0.0416932 0.492348 0.504067
122 1 0.11164 0.422976 0.512494
100 1 0.251622 0.4201 0.528459
285 1 0.798804 0.452934 0.56862
490 1 0.775287 0.446515 0.564775
251 1 0.870026 0.449527 0.551457
15 1 0.328597 0.530003 0.532962
127 1 0.274558 0.53044 0.571245
181 1 0.254226 0.517769 0.578313
390 1 0.589088 0.580825 0.555444
128 1 0.733345 0.516408 0.521622
439 1 0.761056 0.558088 0.579824
296 1 0.757185 0.533711 0.575992
104 1 0.289084 0.590528 0.500475
132 1 0.427609 0.635284 0.50316
284 1 0.787201 0.621987 0.579056
329 1 0.846119 0.665884 0.582586
10 1 0.216693 0.737207 0.565586
290 1 0.199152 0.68762 0.572618
312 1 0.456738 0.692032 0.502082
381 1 0.865271 0.671019 0.568021
424 1 0.382808 0.788989 0.580084
138 1 0.43823 0.821473 0.514539
423 1 0.513372 0.772274 0.518728
222 1 0.804675 0.753589 0.575501
280 1 0.163724 0.856847 0.510632
180 1 0.332551 0.862966 0.56477
38 1 0.546081 0.861442 0.504971
275 1 0.775694 0.838482 0.577777
339 1 0.0183809 0.938161 0.571317
202 1 0.513269 0.981931 0.563995
234 1 0.636882 0.932502 0.562166
399 1 0.603508 0.94012 0.576776
456 1 0.889209 0.943884 0.526136
45 1 0.32951 0.0559122 0.632761
403 1 0.437933 0.0245802 0.641177
198 1 0.825237 0.0107653 0.598095
449 1 0.202595 0.152161 0.653061
448 1 0.376312 0.161351 0.615637
248 1 0.373993 0.123791 0.585782
199 1 0.35407 0.150512 0.658885
242 1 0.353727 0.153531 0.621714
497 1 0.460482 0.157159 0.596844
23 1 0.441946 0.136909 0.653764
326 1 0.46561 0.133352 0.602372
8 1 0.53415 0.207495 0.636437
475 1 0.528332 0.229796 0.626816
36 1 0.721766 0.20872 0.661927
402 1 0.904067 0.18018 0.597404
421 1 0.0801204 0.291916 0.666594
210 1 0.272401 0.325767 0.647852
77 1 0.273009 0.253222 0.601118
392 1 0.0137142 0.34937 0.595575
328 1 0.0156742 0.367273 0.612879
206 1 0.149228 0.415115 0.625366
417 1 0.386779 0.361664 0.659909
225 1 0.355582 0.39323 0.65682
119 1 0.77102 0.380337 0.601961
207 1 0.128939 0.426257 0.634098
92 1 0.164983 0.425224 0.641491
71 1 0.158507 0.425696 0.665499
356 1 0.145123 0.438158 0.648619
365 1 0.120123 0.486376 0.654955
123 1 0.200089 0.489084 0.634548
152 1 0.473936 0.428643 0.607693
369 1 0.606793 0.461524 0.604139
394 1 0.758564 0.419447 0.666541
37 1 0.0897781 0.541306 0.65058
488 1 0.190125 0.511965 0.63554
422 1 0.705496 0.538264 0.628783
175 1 0.688355 0.544497 0.665367
60 1 0.833897 0.582477 0.599285
108 1 0.213697 0.60103 0.623288
115 1 0.23681 0.586046 0.64487
239 1 0.263771 0.64684 0.665295
162 1 0.343548 0.718172 0.590997
215 1 0.644823 0.681986 0.600703
143 1 0.265931 0.816735 0.647714
305 1 0.341098 0.785596 0.586456
102 1 0.516736 0.79019 0.648953
291 1 0.503903 0.768808 0.650347
131 1 0.643681 0.761531 0.59577
502 1 0.659904 0.775166 0.608196
430 1 0.664013 0.804243 0.638065
58 1 0.647544 0.786696 0.64463
67 1 0.717071 0.791882 0.634133
205 1 0.912093 0.780771 0.590878
164 1 0.0426826 0.859255 0.609666
377 1 0.432585 0.897373 0.592315
57 1 0.739136 0.904326 0.585847
387 1 0.697648 0.866231 0.630532
499 1 0.8939 0.904612 0.638804
51 1 0.124699 0.96158 0.664239
335 1 0.343906 0.954953 0.602718
495 1 0.650886 0.986885 0.599712
30 1 0.663005 0.93556 0.631245
34 1 0.663545 0.971514 0.614866
260 1 0.948324 0.961936 0.606801
216 1 0.067908 0.142287 0.733711
185 1 0.187828 0.166225 0.667476
255 1 0.902617 0.101919 0.736869
81 1 0.782866 0.176668 0.701634
204 1 0.8628 0.190137 0.691959
176 1 0.544457 0.31729 0.704715
165 1 0.604108 0.312188 0.699638
282 1 0.931246 0.371669 0.739153
317 1 0.515053 0.424629 0.66689
11 1 0.743295 0.429131 0.73522
28 1 0.875052 0.453585 0.748372
357 1 0.0511982 0.552943 0.681279
355 1 0.306835 0.546655 0.746044
277 1 0.12152 0.614442 0.725483
309 1 0.268723 0.588094 0.748799
460 1 0.438279 0.598595 0.706632
391 1 0.524727 0.613964 0.681326
80 1 0.947813 0.621766 0.67454
84 1 0.351257 0.668544 0.749005
178 1 0.467652 0.699622 0.699147
380 1 0.711453 0.712404 0.689592
393 1 0.294042 0.770637 0.671293
223 1 0.578614 0.78377 0.706941
231 1 0.622948 0.842647 0.692106
232 1 0.972959 0.999683 0.676215
22 1 0.926001 0.975016 0.702709
174 1 0.305099 0.0780545 0.826129
503 1 0.320348 0.0625947 0.766114
498 1 0.38981 0.0415467 0.82181
54 1 0.344726 0.059514 0.761636
171 1 0.053479 0.110845 0.777461
273 1 0.528019 0.1296 0.804827
66 1 0.825329 0.127181 0.790776
192 1 0.886925 0.159254 0.783825
62 1 0.174509 0.187831 0.79271
140 1 0.345772 0.202245 0.761105
89 1 0.517833 0.190195 0.812002
363 1 0.592096 0.211873 0.806098
415 1 0.871671 0.174754 0.796105
354 1 0.00116727 0.287492 0.776524
95 1 0.359303 0.290586 0.758981
385 1 0.69604 0.317899 0.751777
434 1 0.208261 0.396623 0.764959
246 1 0.383468 0.361261 0.827281
510 1 0.743551 0.341889 0.751784
331 1 0.843984 0.396897 0.767732
419 1 0.937814 0.33501 0.774412
304 1 0.161091 0.479287 0.827898
46 1 0.103588 0.452883 0.770918
343 1 0.22765 0.485261 0.822448
352 1 0.195198 0.489466 0.805344
82 1 0.214465 0.442111 0.805212
400 1 0.55619 0.470303 0.828135
173 1 0.815274 0.477898 0.798826
382 1 0.0810152 0.554286 0.830149
474 1 0.263878 0.523151 0.787656
509 1 0.700275 0.501781 0.827026
508 1 0.156169 0.709105 0.812065
302 1 0.279328 0.693844 0.771868
396 1 0.279214 0.704417 0.794495
272 1 0.865452 0.7357 0.804663
278 1 0.965679 0.681338 0.804117
2 1 0.985699 0.669823 0.794612
342 1 0.243469 0.819634 0.801051
257 1 0.236692 0.807313 0.780417
203 1 0.310656 0.77545 0.811398
325 1 0.947996 0.778674 0.768903
124 1 0.386015 0.888528 0.833058
117 1 0.76361 0.857402 0.795818
384 1 0.868678 0.879561 0.81866
27 1 0.267052 0.947637 0.784463
485 1 0.479434 0.955743 0.758589
105 1 0.494715 0.0549863 0.890793
218 1 0.876915 0.0609835 0.915562
464 1 0.0826995 0.108067 0.915702
155 1 0.676837 0.116872 0.87141
492 1 0.893584 0.149582 0.900411
35 1 0.0425681 0.242443 0.838146
258 1 0.127917 0.188795 0.844462
91 1 0.482688 0.219396 0.912353
269 1 0.513512 0.228448 0.855589
7 1 0.579317 0.200176 0.851016
19 1 0.214071 0.305689 0.840383
416 1 0.418914 0.298748 0.901768
442 1 0.795493 0.314164 0.880219
21 1 0.385778 0.386193 0.845727
219 1 0.495425 0.354685 0.843023
96 1 0.454487 0.364885 0.87683
43 1 0.548028 0.368329 0.833409
459 1 0.614625 0.360367 0.871627
141 1 0.72599 0.343757 0.836881
149 1 0.0879914 0.486004 0.875932
368 1 0.321655 0.473809 0.907923
118 1 0.937335 0.4558 0.904186
470 1 0.896069 0.506533 0.90904
479 1 0.924315 0.507629 0.871883
240 1 0.134898 0.644247 0.857193
90 1 0.618179 0.615024 0.843945
431 1 0.599184 0.598948 0.846062
76 1 0.857732 0.606864 0.89119
261 1 0.956827 0.609406 0.88814
238 1 0.0548348 0.712301 0.904468
466 1 0.248988 0.740773 0.89321
78 1 0.488315 0.69881 0.876933
1 1 0.0865045 0.794716 0.834518
314 1 0.525495 0.78386 0.887412
53 1 0.821275 0.824974 0.866644
266 1 0.136382 0.852878 0.850716
486 1 0.534495 0.857027 0.889125
504 1 0.961654 0.836861 0.907219
371 1 0.0531778 0.964519 0.915275
72 1 0.193777 0.989482 0.861287
56 1 0.309574 0.980442 0.914958
299 1 0.344532 0.978016 0.898666
61 1 0.586238 0.9562 0.837162
6 1 0.0208639 0.0149607 0.931956
94 1 0.314224 0.00420245 0.921102
418 1 0.294353 0.0215073 0.964199
217 1 0.312033 0.011551 0.978811
436 1 0.31819 0.0283103 0.961599
406 1 0.33321 0.0246151 0.981158
265 1 0.56267 0.0167662 0.944451
245 1 0.831196 0.078468 0.923111
344 1 0.853588 0.0676904 0.921266
186 1 0.337035 0.137051 0.980307
271 1 0.837354 0.14942 0.977979
227 1 0.120311 0.311647 0.949845
229 1 0.115447 0.304802 0.926325
187 1 0.913449 0.293439 0.975956
75 1 0.912589 0.317761 0.927594
213 1 0.908897 0.307955 0.99576
484 1 0.933201 0.318595 0.940896
247 1 0.945266 0.321512 0.962505
129 1 0.460246 0.334336 0.969885
327 1 0.611595 0.361695 0.982379
409 1 0.726695 0.406922 0.965411
209 1 0.467066 0.442587 0.969732
511 1 0.451259 0.472127 0.976352
59 1 0.62225 0.42708 0.945844
453 1 0.633844 0.459329 0.993525
65 1 0.0709318 0.659014 0.920369
20 1 0.311769 0.653536 0.928476
151 1 0.468557 0.609176 0.943348
487 1 0.544027 0.643167 0.945426
263 1 0.528375 0.66113 0.952915
308 1 0.84182 0.641166 0.93495
433 1 0.983164 0.663353 0.982149
264 1 0.0235432 0.694267 0.985427
142 1 0.00708402 0.74934 0.917096
441 1 0.457299 0.699506 0.954458
189 1 0.0703862 0.760142 0.987956
235 1 0.0386744 0.814577 0.949564
395 1 0.504345 0.755425 0.938322
297 1 0.399418 0.898618 0.95716
373 1 0.718244 0.898458 0.981163
463 1 0.223698 0.945625 0.977807
286 1 0.200129 0.943905 0.969757
323 1 0.451338 0.952492 0.931136
462 1 0.54204 0.981166 0.921515
ITEM: TIMESTEP
10000
ITEM: NUMBER OF ATOMS
512
ITEM: BOX BOUNDS pp pp pp
0.0000000000000000e+00 4.0000000000000000e+01
0.0000000000000000e+00 4.0000000000000000e+01
0.0000000000000000e+00 4.0000000000000000e+01
ITEM: ATOMS id type xs ys zs
350 1 0.604105 0.0195301 0.037751
208 1 0.669342 0.0162939 0.0226516
127 1 0.547706 0.128579 0.0581951
445 1 0.656286 0.258988 0.000732096
428 1 0.260053 0.392051 0.0719896
198 1 0.258915 0.367437 0.0695347
476 1 0.393576 0.344748 0.0464955
44 1 0.538101 0.398627 0.0357806
74 1 0.783888 0.375995 0.0535621
337 1 0.150831 0.495247 0.0401018
53 1 0.685619 0.492322 0.00691656
110 1 0.94914 0.488879 0.00977391
115 1 0.0838867 0.526434 0.00446735
461 1 0.178216 0.524402 0.0333861
393 1 0.510268 0.574152 0.00135284
361 1 0.736713 0.516464 0.00563643
45 1 0.792381 0.576965 0.0521599
261 1 0.819244 0.557578 0.0707579
73 1 0.896354 0.540029 0.0666617
91 1 0.0301973 0.645999 0.010744
391 1 0.0481622 0.61592 0.0281723
453 1 0.11954 0.600232 0.0595091
333 1 0.0962908 0.584609 0.055728
330 1 0.374692 0.587057 0.0512601
491 1 0.692109 0.64971 0.0789873
334 1 0.468022 0.775616 0.0533654
381 1 0.44118 0.825433 0.00947411
172 1 0.61305 0.828055 0.0227589
233 1 0.828934 0.817144 0.0772526
468 1 0.904673 0.796859 0.00957703
417 1 0.0585659 0.887278 0.0803114
295 1 0.122776 0.861063 0.0238655
62 1 0.99322 0.910954 0.0228238
65 1 0.113995 0.983419 0.070154
293 1 0.306086 0.968986 0.0748685
311 1 0.194318 0.0484645 0.0862901
15 1 0.632804 0.0214858 0.159943
264 1 0.592565 0.0205022 0.150176
400 1 0.166288 0.151273 0.0988015
229 1 0.196078 0.123466 0.163705
474 1 0.292581 0.153772 0.133029
30 1 0.358461 0.142289 0.135673
414 1 0.576476 0.140413 0.145009
193 1 0.164604 0.191136 0.0946532
275 1 0.15618 0.169801 0.0835488
425 1 0.646196 0.172699 0.162292
278 1 0.675173 0.248706 0.119248
505 1 0.110592 0.268037 0.110242
409 1 0.561619 0.314601 0.107884
331 1 0.700356 0.271353 0.121653
448 1 0.293165 0.409152 0.166348
512 1 0.738489 0.344877 0.117792
347 1 0.674184 0.356202 0.153879
61 1 0.0382832 0.41754 0.0969404
431 1 0.297861 0.458156 0.120941
67 1 0.363486 0.422412 0.16041
308 1 0.52639 0.422135 0.159727
255 1 0.933181 0.44913 0.162246
362 1 0.491123 0.530485 0.113106
507 1 0.6247 0.542126 0.0867845
159 1 0.332184 0.628107 0.157816
355 1 0.386857 0.642338 0.118155
79 1 0.414773 0.5952 0.108754
237 1 0.500315 0.593842 0.102884
114 1 0.510584 0.664727 0.09148
168 1 0.706446 0.584892 0.143504
387 1 0.825375 0.652774 0.128689
207 1 0.686178 0.674527 0.135274
117 1 0.689053 0.735981 0.118817
508 1 0.941609 0.683468 0.153757
348 1 0.961872 0.743993 0.120473
48 1 0.110081 0.795574 0.106571
10 1 0.278251 0.777743 0.0987513
250 1 0.0674629 0.849442 0.105023
122 1 0.11954 0.854803 0.126461
200 1 0.117527 0.882077 0.110551
367 1 0.232295 0.970813 0.138584
28 1 0.310536 0.983957 0.105456
485 1 0.459437 0.0274034 0.208657
357 1 0.557903 0.017153 0.205185
236 1 0.504798 0.024052 0.16784
458 1 0.530929 0.0174334 0.183815
326 1 0.512806 0.028961 0.195268
225 1 0.0909713 0.10338 0.172588
436 1 0.696557 0.224002 0.179904
377 1 0.558502 0.299214 0.223708
136 1 0.529362 0.311559 0.225986
228 1 0.173865 0.415244 0.186114
224 1 0.207767 0.365651 0.245106
257 1 0.437192 0.340966 0.200463
396 1 0.550079 0.339665 0.232257
113 1 0.587178 0.41107 0.246883
286 1 0.658014 0.338569 0.167982
157 1 0.053969 0.499922 0.234098
344 1 0.448116 0.452935 0.171597
376 1 0.505232 0.463714 0.17173
103 1 0.640452 0.449335 0.197955
31 1 0.0217681 0.509925 0.240145
77 1 0.00255612 0.549342 0.240167
435 1 0.13784 0.544758 0.19574
54 1 0.119207 0.539492 0.213647
325 1 0.278707 0.552299 0.188043
340 1 0.975318 0.561735 0.202928
85 1 0.244897 0.597564 0.221335
397 1 0.332714 0.609171 0.180119
490 1 0.260078 0.61132 0.23877
492 1 0.46639 0.620644 0.219685
459 1 0.444657 0.657834 0.194729
217 1 0.473656 0.606723 0.1966
184 1 0.496138 0.650744 0.248432
227 1 0.644867 0.614025 0.189389
368 1 0.357918 0.731927 0.216565
258 1 0.594509 0.716588 0.219523
213 1 0.649106 0.720759 0.21621
93 1 0.141511 0.817832 0.241271
358 1 0.198363 0.753369 0.222899
434 1 0.796324 0.815655 0.235827
97 1 0.948805 0.776074 0.176798
9 1 0.0644132 0.838942 0.176483
151 1 0.726184 0.887076 0.175489
356 1 0.901098 0.91148 0.208289
219 1 0.0412594 0.963571 0.182932
309 1 0.154746 0.968128 0.249818
270 1 0.291682 0.988552 0.216509
463 1 0.837453 0.0547429 0.256307
106 1 0.926914 0.0429815 0.279293
232 1 0.279475 0.103446 0.293428
245 1 0.651217 0.131087 0.27927
472 1 0.788871 0.126087 0.264504
312 1 0.844209 0.128773 0.315917
1 1 0.215307 0.219973 0.324007
416 1 0.259333 0.246166 0.250161
142 1 0.945542 0.224526 0.291436
116 1 0.425846 0.304294 0.318048
169 1 0.4255 0.282413 0.30462
242 1 0.602561 0.269239 0.282018
412 1 0.610358 0.283312 0.265262
411 1 0.0589353 0.34761 0.255432
328 1 0.07853 0.359891 0.322922
259 1 0.874942 0.366439 0.314659
111 1 0.344318 0.556974 0.26721
5 1 0.482102 0.560704 0.313064
158 1 0.105856 0.621622 0.326321
58 1 0.159125 0.606776 0.258709
95 1 0.209539 0.590637 0.259892
214 1 0.171329 0.594544 0.276323
203 1 0.224685 0.619765 0.286466
343 1 0.520348 0.65829 0.254116
202 1 0.620519 0.643584 0.263052
407 1 0.809112 0.59129 0.309053
402 1 0.59455 0.713234 0.305128
241 1 0.754034 0.694443 0.258108
2 1 0.0246083 0.780332 0.31748
477 1 0.22919 0.81434 0.259143
180 1 0.174872 0.765087 0.312035
132 1 0.882972 0.771764 0.3071
339 1 0.0346193 0.88035 0.322613
133 1 0.166776 0.83938 0.325042
482 1 0.0410333 0.946657 0.274002
509 1 0.0584072 0.97143 0.325875
452 1 0.395224 0.927964 0.286865
375 1 0.945461 0.070862 0.375794
329 1 0.583278 0.109519 0.39363
135 1 0.664791 0.162113 0.343497
164 1 0.812239 0.159692 0.369404
29 1 0.951858 0.145147 0.372058
352 1 0.173393 0.230909 0.366789
167 1 0.311094 0.231132 0.402787
150 1 0.439845 0.170916 0.382652
161 1 0.524303 0.219537 0.334097
426 1 0.591231 0.237862 0.335425
277 1 0.815188 0.24882 0.368367
68 1 0.926889 0.167524 0.401796
260 1 0.978868 0.176144 0.387541
123 1 0.0148919 0.293847 0.334263
165 1 0.513641 0.301922 0.362922
481 1 0.588747 0.265809 0.340796
440 1 0.741882 0.287874 0.398337
155 1 0.0810567 0.376128 0.342774
498 1 0.0988973 0.382582 0.395848
139 1 0.263164 0.37855 0.349261
422 1 0.639256 0.343262 0.365436
379 1 0.61538 0.352019 0.358659
371 1 0.145354 0.459318 0.413213
33 1 0.279495 0.555951 0.37446
230 1 0.614404 0.557882 0.338454
317 1 0.690019 0.623126 0.378636
279 1 0.0498229 0.74792 0.357369
410 1 0.691319 0.721443 0.338275
303 1 0.785129 0.73967 0.379776
220 1 0.116249 0.791869 0.341342
96 1 0.512766 0.809702 0.384431
408 1 0.845301 0.827016 0.334307
215 1 0.218459 0.866528 0.374369
256 1 0.489952 0.845278 0.408425
234 1 0.701807 0.90922 0.386387
473 1 0.916215 0.906225 0.362103
318 1 0.999379 0.915879 0.410009
292 1 0.994541 0.904508 0.389492
190 1 0.985009 0.872541 0.405181
460 1 0.250312 0.93061 0.352608
109 1 0.501546 0.944486 0.344779
489 1 0.837087 0.996519 0.392487
188 1 0.0102857 0.0420926 0.433838
134 1 0.114253 0.165003 0.42031
335 1 0.382039 0.150842 0.436544
488 1 0.445473 0.11626 0.49853
32 1 0.542593 0.0982045 0.461824
372 1 0.79687 0.23654 0.429337
304 1 0.81694 0.217519 0.473293
71 1 0.220465 0.290699 0.437116
281 1 0.256899 0.286147 0.464174
327 1 0.351951 0.264416 0.416796
439 1 0.698561 0.326444 0.469364
8 1 0.7982 0.260835 0.47028
37 1 0.0305213 0.334027 0.475121
51 1 0.248396 0.407844 0.495655
218 1 0.338935 0.357182 0.437978
120 1 0.364204 0.354859 0.468354
197 1 0.44864 0.352995 0.477488
437 1 0.531933 0.363644 0.464498
405 1 0.0461737 0.439153 0.43911
107 1 0.0876861 0.467411 0.436116
263 1 0.629566 0.433525 0.49115
210 1 0.63584 0.489559 0.4319
140 1 0.758012 0.431088 0.49413
289 1 0.94236 0.484236 0.456246
56 1 0.689632 0.562819 0.463496
511 1 0.0337812 0.635612 0.471632
305 1 0.0446256 0.613205 0.472345
349 1 0.630968 0.710638 0.449371
370 1 0.790538 0.705433 0.453462
323 1 0.124604 0.810502 0.425865
99 1 0.266135 0.819614 0.459795
195 1 0.999953 0.831152 0.455834
75 1 0.322099 0.886833 0.448751
276 1 0.258132 0.836712 0.441605
119 1 0.446647 0.874314 0.470801
456 1 0.51504 0.921259 0.441367
424 1 0.588688 0.945599 0.483291
76 1 0.52306 0.0462997 0.547463
216 1 0.830628 0.0535791 0.518819
153 1 0.914925 0.0189104 0.505065
55 1 0.936886 0.00615805 0.524449
495 1 0.873878 0.109176 0.515511
89 1 0.649734 0.233209 0.580138
176 1 0.668802 0.193415 0.540635
50 1 0.667977 0.223972 0.512895
374 1 0.100458 0.265061 0.579951
502 1 0.210372 0.274094 0.527696
49 1 0.558106 0.32626 0.564497
471 1 0.513961 0.324785 0.57794
359 1 0.851822 0.255929 0.523262
487 1 0.31248 0.340075 0.500021
247 1 0.377141 0.364083 0.500163
262 1 0.576381 0.365108 0.542896
201 1 0.559434 0.363029 0.513463
183 1 0.532617 0.410299 0.505934
345 1 0.536764 0.336822 0.550943
429 1 0.0299838 0.421635 0.547106
496 1 0.127968 0.447116 0.506798
506 1 0.198989 0.437111 0.534305
144 1 0.168619 0.439305 0.542394
316 1 0.273807 0.457441 0.514836
42 1 0.619149 0.44328 0.518792
267 1 0.660274 0.461243 0.54009
475 1 0.754996 0.47583 0.572959
398 1 0.878748 0.489331 0.53053
404 1 0.876056 0.480608 0.507873
388 1 0.07906 0.556884 0.575408
69 1 0.204064 0.511171 0.529447
52 1 0.286506 0.582269 0.539782
101 1 0.195676 0.63458 0.509332
298 1 0.439381 0.665938 0.55878
392 1 0.586658 0.612287 0.568593
13 1 0.156297 0.712556 0.540045
137 1 0.500272 0.719474 0.527631
336 1 0.219038 0.799764 0.559168
209 1 0.396634 0.765027 0.54137
478 1 0.456533 0.80258 0.521224
163 1 0.63616 0.804003 0.511058
90 1 0.664184 0.791351 0.572701
244 1 0.47254 0.856064 0.549182
320 1 0.505695 0.883497 0.569129
171 1 0.551597 0.913068 0.537045
205 1 0.6292 0.872017 0.528893
442 1 0.663865 0.913594 0.567581
146 1 0.920071 0.842039 0.568027
156 1 0.24031 0.917022 0.575053
98 1 0.488752 0.986784 0.552899
291 1 0.476485 0.964027 0.547458
360 1 0.577602 0.972692 0.554321
501 1 0.688487 0.95369 0.54416
338 1 0.750059 0.972909 0.525464
112 1 0.906549 0.98823 0.514443
102 1 0.913795 0.965939 0.564285
173 1 0.365617 0.0362937 0.640867
36 1 0.664935 0.0299075 0.617304
129 1 0.674573 0.00648607 0.624369
314 1 0.748804 0.0018664 0.663175
100 1 0.72746 0.0690235 0.594404
324 1 0.103344 0.129001 0.650629
240 1 0.432148 0.143412 0.601364
41 1 0.784461 0.135827 0.638145
423 1 0.528919 0.300434 0.597935
82 1 0.729584 0.306651 0.615048
24 1 0.701357 0.278222 0.599323
500 1 0.998235 0.308376 0.626398
21 1 0.990167 0.274217 0.593683
503 1 0.238388 0.390261 0.621246
283 1 0.234365 0.370518 0.609317
438 1 0.894774 0.340603 0.602157
175 1 0.838569 0.357427 0.600088
430 1 0.923764 0.338152 0.607378
421 1 0.0282378 0.496813 0.64901
307 1 0.0815777 0.429277 0.628875
12 1 0.474771 0.469924 0.624962
313 1 0.643211 0.423156 0.664754
484 1 0.914989 0.418984 0.613132
152 1 0.949256 0.430745 0.630612
126 1 0.0798678 0.655333 0.594976
365 1 0.390075 0.596369 0.616092
499 1 0.731485 0.607717 0.59057
280 1 0.168235 0.718253 0.621725
192 1 0.140472 0.76562 0.652231
332 1 0.598728 0.817801 0.604856
223 1 0.634668 0.781912 0.637052
121 1 0.998478 0.830152 0.603579
162 1 0.21537 0.910706 0.641177
321 1 0.240097 0.9124 0.655608
301 1 0.355584 0.90536 0.661609
504 1 0.382693 0.912729 0.657138
300 1 0.53159 0.857817 0.65828
390 1 0.928578 0.885107 0.609372
406 1 0.947144 0.855814 0.604492
6 1 0.239382 0.923094 0.633429
297 1 0.72215 0.966291 0.662142
467 1 0.0112738 0.045658 0.738272
149 1 0.388724 0.14707 0.728095
147 1 0.0705704 0.17761 0.688464
20 1 0.10532 0.196583 0.749322
268 1 0.441192 0.249048 0.668612
86 1 0.535957 0.392409 0.689863
105 1 0.608586 0.37933 0.739982
479 1 0.0586161 0.446786 0.748978
39 1 0.182064 0.460421 0.7332
181 1 0.399652 0.550137 0.729936
206 1 0.427771 0.551856 0.728086
235 1 0.0947041 0.650329 0.682551
462 1 0.895 0.610983 0.675904
497 1 0.516212 0.719401 0.717019
222 1 0.714019 0.677483 0.726238
249 1 0.194683 0.814329 0.726892
470 1 0.418237 0.78692 0.701283
432 1 0.531512 0.804057 0.710127
285 1 0.391867 0.85445 0.675549
17 1 0.422965 0.86495 0.670798
11 1 0.431958 0.915259 0.730616
253 1 0.529994 0.843461 0.734607
510 1 0.643957 0.887656 0.685777
185 1 0.589917 0.899967 0.734087
401 1 0.794456 0.838837 0.694068
3 1 0.855876 0.875067 0.680589
130 1 0.273605 0.952746 0.743934
373 1 0.776069 0.93072 0.739987
251 1 0.878572 0.959669 0.707453
420 1 0.87173 0.949765 0.684045
221 1 0.954486 0.979754 0.722545
294 1 0.00435672 0.00769405 0.815642
211 1 0.129817 0.0231241 0.805836
104 1 0.166437 0.00518586 0.830126
306 1 0.154459 0.0493138 0.821836
269 1 0.315152 0.0781763 0.828351
143 1 0.355392 0.00173534 0.757031
403 1 0.0381071 0.161222 0.801504
363 1 0.20795 0.13865 0.805089
182 1 0.334182 0.0973196 0.772731
148 1 0.361163 0.132762 0.776947
493 1 0.0040503 0.191371 0.830154
18 1 0.109018 0.21199 0.776547
186 1 0.617347 0.188578 0.800425
288 1 0.785325 0.228556 0.759755
81 1 0.131472 0.279789 0.811672
364 1 0.505303 0.324246 0.826823
385 1 0.547677 0.260292 0.771319
466 1 0.694336 0.306644 0.799614
64 1 0.844862 0.263384 0.77651
226 1 0.838565 0.276329 0.796958
118 1 0.973433 0.272827 0.778358