ITEM: TIMESTEP
0
ITEM: NUMBER OF ATOMS
512
ITEM: BOX BOUNDS pp pp pp
0.0000000000000000e+00 4.0000000000000000e+01
0.0000000000000000e+00 4.0000000000000000e+01
0.0000000000000000e+00 4.0000000000000000e+01
ITEM: ATOMS id type xs ys zs
1 1 0.0625 0.0625 0.0625
65 1 0.1875 0.0625 0.0625
129 1 0.3125 0.0625 0.0625
193 1 0.4375 0.0625 0.0625
257 1 0.5625 0.0625 0.0625
321 1 0.6875 0.0625 0.0625
385 1 0.8125 0.0625 0.0625
449 1 0.9375 0.0625 0.0625
9 1 0.0625 0.1875 0.0625
73 1 0.1875 0.1875 0.0625
137 1 0.3125 0.1875 0.0625
201 1 0.4375 0.1875 0.0625
265 1 0.5625 0.1875 0.0625
329 1 0.6875 0.1875 0.0625
393 1 0.8125 0.1875 0.0625
457 1 0.9375 0.1875 0.0625
17 1 0.0625 0.3125 0.0625
81 1 0.1875 0.3125 0.0625
145 1 0.3125 0.3125 0.0625
209 1 0.4375 0.3125 0.0625
273 1 0.5625 0.3125 0.0625
337 1 0.6875 0.3125 0.0625
401 1 0.8125 0.3125 0.0625
465 1 0.9375 0.3125 0.0625
25 1 0.0625 0.4375 0.0625
89 1 0.1875 0.4375 0.0625
153 1 0.3125 0.4375 0.0625
217 1 0.4375 0.4375 0.0625
281 1 0.5625 0.4375 0.0625
345 1 0.6875 0.4375 0.0625
409 1 0.8125 0.4375 0.0625
473 1 0.9375 0.4375 0.0625
33 1 0.0625 0.5625 0.0625
97 1 0.1875 0.5625 0.0625
161 1 0.3125 0.5625 0.0625
225 1 0.4375 0.5625 0.0625
289 1 0.5625 0.5625 0.0625
353 1 0.6875 0.5625 0.0625
417 1 0.8125 0.5625 0.0625
481 1 0.9375 0.5625 0.0625
41 1 0.0625 0.6875 0.0625
105 1 0.1875 0.6875 0.0625
169 1 0.3125 0.6875 0.0625
233 1 0.4375 0.6875 0.0625
297 1 0.5625 0.6875 0.0625
361 1 0.6875 0.6875 0.0625
425 1 0.8125 0.6875 0.0625
489 1 0.9375 0.6875 0.0625
49 1 0.0625 0.8125 0.0625
113 1 0.1875 0.8125 0.0625
177 1 0.3125 0.8125 0.0625
241 1 0.4375 0.8125 0.0625
305 1 0.5625 0.8125 0.0625
369 1 0.6875 0.8125 0.0625
433 1 0.8125 0.8125 0.0625
497 1 0.9375 0.8125 0.0625
57 1 0.0625 0.9375 0.0625
121 1 0.1875 0.9375 0.0625
185 1 0.3125 0.9375 0.0625
249 1 0.4375 0.9375 0.0625
313 1 0.5625 0.9375 0.0625
377 1 0.6875 0.9375 0.0625
441 1 0.8125 0.9375 0.0625
505 1 0.9375 0.9375 0.0625
2 1 0.0625 0.0625 0.1875
66 1 0.1875 0.0625 0.1875
130 1 0.3125 0.0625 0.1875
194 1 0.4375 0.0625 0.1875
258 1 0.5625 0.0625 0.1875
322 1 0.6875 0.0625 0.1875
386 1 0.8125 0.0625 0.1875
450 1 0.9375 0.0625 0.1875
10 1 0.0625 0.1875 0.1875
74 1 0.1875 0.1875 0.1875
138 1 0.3125 0.1875 0.1875
202 1 0.4375 0.1875 0.1875
266 1 0.5625 0.1875 0.1875
330 1 0.6875 0.1875 0.1875
394 1 0.8125 0.1875 0.1875
458 1 0.9375 0.1875 0.1875
18 1 0.0625 0.3125 0.1875
82 1 0.1875 0.3125 0.1875
146 1 0.3125 0.3125 0.1875
210 1 0.4375 0.3125 0.1875
274 1 0.5625 0.3125 0.1875
338 1 0.6875 0.3125 0.1875
402 1 0.8125 0.3125 0.1875
466 1 0.9375 0.3125 0.1875
26 1 0.0625 0.4375 0.1875
90 1 0.1875 0.4375 0.1875
154 1 0.3125 0.4375 0.1875
218 1 0.4375 0.4375 0.1875
282 1 0.5625 0.4375 0.1875
346 1 0.6875 0.4375 0.1875
410 1 0.8125 0.4375 0.1875
474 1 0.9375 0.4375 0.1875
34 1 0.0625 0.5625 0.1875
98 1 0.1875 0.5625 0.1875
162 1 0.3125 0.5625 0.1875
226 1 0.4375 0.5625 0.1875
290 1 0.5625 0.5625 0.1875
354 1 0.6875 0.5625 0.1875
418 1 0.8125 0.5625 0.1875
482 1 0.9375 0.5625 0.1875
42 1 0.0625 0.6875 0.1875
106 1 0.1875 0.6875 0.1875
170 1 0.3125 0.6875 0.1875
234 1 0.4375 0.6875 0.1875
298 1 0.5625 0.6875 0.1875
362 1 0.6875 0.6875 0.1875
426 1 0.8125 0.6875 0.1875
490 1 0.9375 0.6875 0.1875
50 1 0.0625 0.8125 0.1875
114 1 0.1875 0.8125 0.1875
178 1 0.3125 0.8125 0.1875
242 1 0.4375 0.8125 0.1875
306 1 0.5625 0.8125 0.1875
370 1 0.6875 0.8125 0.1875
434 1 0.8125 0.8125 0.1875
498 1 0.9375 0.8125 0.1875
58 1 0.0625 0.9375 0.1875
122 1 0.1875 0.9375 0.1875
186 1 0.3125 0.9375 0.1875
250 1 0.4375 0.9375 0.1875
314 1 0.5625 0.9375 0.1875
378 1 0.6875 0.9375 0.1875
442 1 0.8125 0.9375 0.1875
506 1 0.9375 0.9375 0.1875
3 1 0.0625 0.0625 0.3125
67 1 0.1875 0.0625 0.3125
131 1 0.3125 0.0625 0.3125
195 1 0.4375 0.0625 0.3125
259 1 0.5625 0.0625 0.3125
323 1 0.6875 0.0625 0.3125
387 1 0.8125 0.0625 0.3125
451 1 0.9375 0.0625 0.3125
11 1 0.0625 0.1875 0.3125
75 1 0.1875 0.1875 0.3125
139 1 0.3125 0.1875 0.3125
203 1 0.4375 0.1875 0.3125
267 1 0.5625 0.1875 0.3125
331 1 0.6875 0.1875 0.3125
395 1 0.8125 0.1875 0.3125
459 1 0.9375 0.1875 0.3125
19 1 0.0625 0.3125 0.3125
83 1 0.1875 0.3125 0.3125
147 1 0.3125 0.3125 0.3125
211 1 0.4375 0.3125 0.3125
275 1 0.5625 0.3125 0.3125
339 1 0.6875 0.3125 0.3125
403 1 0.8125 0.3125 0.3125
467 1 0.9375 0.3125 0.3125
27 1 0.0625 0.4375 0.3125
91 1 0.1875 0.4375 0.3125
155 1 0.3125 0.4375 0.3125
219 1 0.4375 0.4375 0.3125
283 1 0.5625 0.4375 0.3125
347 1 0.6875 0.4375 0.3125
411 1 0.8125 0.4375 0.3125
475 1 0.9375 0.4375 0.3125
35 1 0.0625 0.5625 0.3125
99 1 0.1875 0.5625 0.3125
163 1 0.3125 0.5625 0.3125
227 1 0.4375 0.5625 0.3125
291 1 0.5625 0.5625 0.3125
355 1 0.6875 0.5625 0.3125
419 1 0.8125 0.5625 0.3125
483 1 0.9375 0.5625 0.3125
43 1 0.0625 0.6875 0.3125
107 1 0.1875 0.6875 0.3125
171 1 0.3125 0.6875 0.3125
235 1 0.4375 0.6875 0.3125
299 1 0.5625 0.6875 0.3125
363 1 0.6875 0.6875 0.3125
427 1 0.8125 0.6875 0.3125
491 1 0.9375 0.6875 0.3125
51 1 0.0625 0.8125 0.3125
115 1 0.1875 0.8125 0.3125
179 1 0.3125 0.8125 0.3125
243 1 0.4375 0.8125 0.3125
307 1 0.5625 0.8125 0.3125
371 1 0.6875 0.8125 0.3125
435 1 0.8125 0.8125 0.3125
499 1 0.9375 0.8125 0.3125
59 1 0.0625 0.9375 0.3125
123 1 0.1875 0.9375 0.3125
187 1 0.3125 0.9375 0.3125
251 1 0.4375 0.9375 0.3125
315 1 0.5625 0.9375 0.3125
379 1 0.6875 0.9375 0.3125
443 1 0.8125 0.9375 0.3125
507 1 0.9375 0.9375 0.3125
4 1 0.0625 0.0625 0.4375
68 1 0.1875 0.0625 0.4375
132 1 0.3125 0.0625 0.4375
196 1 0.4375 0.0625 0.4375
260 1 0.5625 0.0625 0.4375
324 1 0.6875 0.0625 0.4375
388 1 0.8125 0.0625 0.4375
452 1 0.9375 0.0625 0.4375
12 1 0.0625 0.1875 0.4375
76 1 0.1875 0.1875 0.4375
140 1 0.3125 0.1875 0.4375
204 1 0.4375 0.1875 0.4375
268 1 0.5625 0.1875 0.4375
332 1 0.6875 0.1875 0.4375
396 1 0.8125 0.1875 0.4375
460 1 0.9375 0.1875 0.4375
20 1 0.0625 0.3125 0.4375
84 1 0.1875 0.3125 0.4375
148 1 0.3125 0.3125 0.4375
212 1 0.4375 0.3125 0.4375
276 1 0.5625 0.3125 0.4375
340 1 0.6875 0.3125 0.4375
404 1 0.8125 0.3125 0.4375
468 1 0.9375 0.3125 0.4375
28 1 0.0625 0.4375 0.4375
92 1 0.1875 0.4375 0.4375
156 1 0.3125 0.4375 0.4375
220 1 0.4375 0.4375 0.4375
284 1 0.5625 0.4375 0.4375
348 1 0.6875 0.4375 0.4375
412 1 0.8125 0.4375 0.4375
476 1 0.9375 0.4375 0.4375
36 1 0.0625 0.5625 0.4375
100 1 0.1875 0.5625 0.4375
164 1 0.3125 0.5625 0.4375
228 1 0.4375 0.5625 0.4375
292 1 0.5625 0.5625 0.4375
356 1 0.6875 0.5625 0.4375
420 1 0.8125 0.5625 0.4375
484 1 0.9375 0.5625 0.4375
44 1 0.0625 0.6875 0.4375
108 1 0.1875 0.6875 0.4375
172 1 0.3125 0.6875 0.4375
236 1 0.4375 0.6875 0.4375
300 1 0.5625 0.6875 0.4375
364 1 0.6875 0.6875 0.4375
428 1 0.8125 0.6875 0.4375
492 1 0.9375 0.6875 0.4375
52 1 0.0625 0.8125 0.4375
116 1 0.1875 0.8125 0.4375
180 1 0.3125 0.8125 0.4375
244 1 0.4375 0.8125 0.4375
308 1 0.5625 0.8125 0.4375
372 1 0.6875 0.8125 0.4375
436 1 0.8125 0.8125 0.4375
500 1 0.9375 0.8125 0.4375
60 1 0.0625 0.9375 0.4375
124 1 0.1875 0.9375 0.4375
188 1 0.3125 0.9375 0.4375
252 1 0.4375 0.9375 0.4375
316 1 0.5625 0.9375 0.4375
380 1 0.6875 0.9375 0.4375
444 1 0.8125 0.9375 0.4375
508 1 0.9375 0.9375 0.4375
5 1 0.0625 0.0625 0.5625
69 1 0.1875 0.0625 0.5625
133 1 0.3125 0.0625 0.5625
197 1 0.4375 0.0625 0.5625
261 1 0.5625 0.0625 0.5625
325 1 0.6875 0.0625 0.5625
389 1 0.8125 0.0625 0.5625
453 1 0.9375 0.0625 0.5625
13 1 0.0625 0.1875 0.5625
77 1 0.1875 0.1875 0.5625
141 1 0.3125 0.1875 0.5625
205 1 0.4375 0.1875 0.5625
269 1 0.5625 0.1875 0.5625
333 1 0.6875 0.1875 0.5625
397 1 0.8125 0.1875 0.5625
461 1 0.9375 0.1875 0.5625
21 1 0.0625 0.3125 0.5625
85 1 0.1875 0.3125 0.5625
149 1 0.3125 0.3125 0.5625
213 1 0.4375 0.3125 0.5625
277 1 0.5625 0.3125 0.5625
341 1 0.6875 0.3125 0.5625
405 1 0.8125 0.3125 0.5625
469 1 0.9375 0.3125 0.5625
29 1 0.0625 0.4375 0.5625
93 1 0.1875 0.4375 0.5625
157 1 0.3125 0.4375 0.5625
221 1 0.4375 0.4375 0.5625
285 1 0.5625 0.4375 0.5625
349 1 0.6875 0.4375 0.5625
413 1 0.8125 0.4375 0.5625
477 1 0.9375 0.4375 0.5625
37 1 0.0625 0.5625 0.5625
101 1 0.1875 0.5625 0.5625
165 1 0.3125 0.5625 0.5625
229 1 0.4375 0.5625 0.5625
293 1 0.5625 0.5625 0.5625
357 1 0.6875 0.5625 0.5625
421 1 0.8125 0.5625 0.5625
485 1 0.9375 0.5625 0.5625
45 1 0.0625 0.6875 0.5625
109 1 0.1875 0.6875 0.5625
173 1 0.3125 0.6875 0.5625
237 1 0.4375 0.6875 0.5625
301 1 0.5625 0.6875 0.5625
365 1 0.6875 0.6875 0.5625
429 1 0.8125 0.6875 0.5625
493 1 0.9375 0.6875 0.5625
53 1 0.0625 0.8125 0.5625
117 1 0.1875 0.8125 0.5625
181 1 0.3125 0.8125 0.5625
245 1 0.4375 0.8125 0.5625
309 1 0.5625 0.8125 0.5625
373 1 0.6875 0.8125 0.5625
437 1 0.8125 0.8125 0.5625
501 1 0.9375 0.8125 0.5625
61 1 0.0625 0.9375 0.5625
125 1 0.1875 0.9375 0.5625
189 1 0.3125 0.9375 0.5625
253 1 0.4375 0.9375 0.5625
317 1 0.5625 0.9375 0.5625
381 1 0.6875 0.9375 0.5625
445 1 0.8125 0.9375 0.5625
509 1 0.9375 0.9375 0.5625
6 1 0.0625 0.0625 0.6875
70 1 0.1875 0.0625 0.6875
134 1 0.3125 0.0625 0.6875
198 1 0.4375 0.0625 0.6875
262 1 0.5625 0.0625 0.6875
326 1 0.6875 0.0625 0.6875
390 1 0.8125 0.0625 0.6875
454 1 0.9375 0.0625 0.6875
14 1 0.0625 0.1875 0.6875
78 1 0.1875 0.1875 0.6875
142 1 0.3125 0.1875 0.6875
206 1 0.4375 0.1875 0.6875
270 1 0.5625 0.1875 0.6875
334 1 0.6875 0.1875 0.6875
398 1 0.8125 0.1875 0.6875
462 1 0.9375 0.1875 0.6875
22 1 0.0625 0.3125 0.6875
86 1 0.1875 0.3125 0.6875
150 1 0.3125 0.3125 0.6875
214 1 0.4375 0.3125 0.6875
278 1 0.5625 0.3125 0.6875
342 1 0.6875 0.3125 0.6875
406 1 0.8125 0.3125 0.6875
470 1 0.9375 0.3125 0.6875
30 1 0.0625 0.4375 0.6875
94 1 0.1875 0.4375 0.6875
158 1 0.3125 0.4375 0.6875
222 1 0.4375 0.4375 0.6875
286 1 0.5625 0.4375 0.6875
350 1 0.6875 0.4375 0.6875
414 1 0.8125 0.4375 0.6875
478 1 0.9375 0.4375 0.6875
38 1 0.0625 0.5625 0.6875
102 1 0.1875 0.5625 0.6875
166 1 0.3125 0.5625 0.6875
230 1 0.4375 0.5625 0.6875
294 1 0.5625 0.5625 0.6875
358 1 0.6875 0.5625 0.6875
422 1 0.8125 0.5625 0.6875
486 1 0.9375 0.5625 0.6875
46 1 0.0625 0.6875 0.6875
110 1 0.1875 0.6875 0.6875
174 1 0.3125 0.6875 0.6875
238 1 0.4375 0.6875 0.6875
302 1 0.5625 0.6875 0.6875
366 1 0.6875 0.6875 0.6875
430 1 0.8125 0.6875 0.6875
494 1 0.9375 0.6875 0.6875
54 1 0.0625 0.8125 0.6875
118 1 0.1875 0.8125 0.6875
182 1 0.3125 0.8125 0.6875
246 1 0.4375 0.8125 0.6875
310 1 0.5625 0.8125 0.6875
374 1 0.6875 0.8125 0.6875
438 1 0.8125 0.8125 0.6875
502 1 0.9375 0.8125 0.6875
62 1 0.0625 0.9375 0.6875
126 1 0.1875 0.9375 0.6875
190 1 0.3125 0.9375 0.6875
254 1 0.4375 0.9375 0.6875
318 1 0.5625 0.9375 0.6875
382 1 0.6875 0.9375 0.6875
446 1 0.8125 0.9375 0.6875
510 1 0.9375 0.9375 0.6875
7 1 0.0625 0.0625 0.8125
71 1 0.1875 0.0625 0.8125
135 1 0.3125 0.0625 0.8125
199 1 0.4375 0.0625 0.8125
263 1 0.5625 0.0625 0.8125
327 1 0.6875 0.0625 0.8125
391 1 0.8125 0.0625 0.8125
455 1 0.9375 0.0625 0.8125
15 1 0.0625 0.1875 0.8125
79 1 0.1875 0.1875 0.8125
143 1 0.3125 0.1875 0.8125
207 1 0.4375 0.1875 0.8125
271 1 0.5625 0.1875 0.8125
335 1 0.6875 0.1875 0.8125
399 1 0.8125 0.1875 0.8125
463 1 0.9375 0.1875 0.8125
23 1 0.0625 0.3125 0.8125
87 1 0.1875 0.3125 0.8125
151 1 0.3125 0.3125 0.8125
215 1 0.4375 0.3125 0.8125
279 1 0.5625 0.3125 0.8125
343 1 0.6875 0.3125 0.8125
407 1 0.8125 0.3125 0.8125
471 1 0.9375 0.3125 0.8125
31 1 0.0625 0.4375 0.8125
95 1 0.1875 0.4375 0.8125
159 1 0.3125 0.4375 0.8125
223 1 0.4375 0.4375 0.8125
287 1 0.5625 0.4375 0.8125
351 1 0.6875 0.4375 0.8125
415 1 0.8125 0.4375 0.8125
479 1 0.9375 0.4375 0.8125
39 1 0.0625 0.5625 0.8125
103 1 0.1875 0.5625 0.8125
167 1 0.3125 0.5625 0.8125
231 1 0.4375 0.5625 0.8125
295 1 0.5625 0.5625 0.8125
359 1 0.6875 0.5625 0.8125
423 1 0.8125 0.5625 0.8125
487 1 0.9375 0.5625 0.8125
47 1 0.0625 0.6875 0.8125
111 1 0.1875 0.6875 0.8125
175 1 0.3125 0.6875 0.8125
239 1 0.4375 0.6875 0.8125
303 1 0.5625 0.6875 0.8125
367 1 0.6875 0.6875 0.8125
431 1 0.8125 0.6875 0.8125
495 1 0.9375 0.6875 0.8125
55 1 0.0625 0.8125 0.8125
119 1 0.1875 0.8125 0.8125
183 1 0.3125 0.8125 0.8125
247 1 0.4375 0.8125 0.8125
311 1 0.5625 0.8125 0.8125
375 1 0.6875 0.8125 0.8125
439 1 0.8125 0.8125 0.8125
503 1 0.9375 0.8125 0.8125
63 1 0.0625 0.9375 0.8125
127 1 0.1875 0.9375 0.8125
191 1 0.3125 0.9375 0.8125
255 1 0.4375 0.9375 0.8125
319 1 0.5625 0.9375 0.8125
383 1 0.6875 0.9375 0.8125
447 1 0.8125 0.9375 0.8125
511 1 0.9375 0.9375 0.8125
8 1 0.0625 0.0625 0.9375
72 1 0.1875 0.0625 0.9375
136 1 0.3125 0.0625 0.9375
200 1 0.4375 0.0625 0.9375
264 1 0.5625 0.0625 0.9375
328 1 0.6875 0.0625 0.9375
392 1 0.8125 0.0625 0.9375
456 1 0.9375 0.0625 0.9375
16 1 0.0625 0.1875 0.9375
80 1 0.1875 0.1875 0.9375
144 1 0.3125 0.1875 0.9375
208 1 0.4375 0.1875 0.9375
272 1 0.5625 0.1875 0.9375
336 1 0.6875 0.1875 0.9375
400 1 0.8125 0.1875 0.9375
464 1 0.9375 0.1875 0.9375
24 1 0.0625 0.3125 0.9375
88 1 0.1875 0.3125 0.9375
152 1 0.3125 0.3125 0.9375
216 1 0.4375 0.3125 0.9375
280 1 0.5625 0.3125 0.9375
344 1 0.6875 0.3125 0.9375
408 1 0.8125 0.3125 0.9375
472 1 0.9375 0.3125 0.9375
32 1 0.0625 0.4375 0.9375
96 1 0.1875 0.4375 0.9375
160 1 0.3125 0.4375 0.9375
224 1 0.4375 0.4375 0.9375
288 1 0.5625 0.4375 0.9375
352 1 0.6875 0.4375 0.9375
416 1 0.8125 0.4375 0.9375
480 1 0.9375 0.4375 0.9375
40 1 0.0625 0.5625 0.9375
104 1 0.1875 0.5625 0.9375
168 1 0.3125 0.5625 0.9375
232 1 0.4375 0.5625 0.9375
296 1 0.5625 0.5625 0.9375
360 1 0.6875 0.5625 0.9375
424 1 0.8125 0.5625 0.9375
488 1 0.9375 0.5625 0.9375
48 1 0.0625 0.6875 0.9375
112 1 0.1875 0.6875 0.9375
176 1 0.3125 0.6875 0.9375
240 1 0.4375 0.6875 0.9375
304 1 0.5625 0.6875 0.9375
368 1 0.6875 0.6875 0.9375
432 1 0.8125 0.6875 0.9375
496 1 0.9375 0.6875 0.9375
56 1 0.0625 0.8125 0.9375
120 1 0.1875 0.8125 0.9375
184 1 0.3125 0.8125 0.9375
248 1 0.4375 0.8125 0.9375
312 1 0.5625 0.8125 0.9375
376 1 0.6875 0.8125 0.9375
440 1 0.8125 0.8125 0.9375
504 1 0.9375 0.8125 0.9375
64 1 0.0625 0.9375 0.9375
128 1 0.1875 0.9375 0.9375
192 1 0.3125 0.9375 0.9375
256 1 0.4375 0.9375 0.9375
320 1 0.5625 0.9375 0.9375
384 1 0.6875 0.9375 0.9375
448 1 0.8125 0.9375 0.9375
512 1 0.9375 0.9375 0.9375
ITEM: TIMESTEP
1000
ITEM: NUMBER OF ATOMS
512
ITEM: BOX BOUNDS pp pp pp
0.0000000000000000e+00 4.0000000000000000e+01
0.0000000000000000e+00 4.0000000000000000e+01
0.0000000000000000e+00 4.0000000000000000e+01
ITEM: ATOMS id type xs ys zs
11 1 0.226302 0.0473625 0.00856547
189 1 0.250022 0.0732679 0.00601466
120 1 0.223465 0.106508 0.0611882
137 1 0.367276 0.10263 0.0567437
144 1 0.155687 0.244005 0.0456138
263 1 0.384964 0.17305 0.0657159
353 1 0.860214 0.213604 5.27538e-05
329 1 0.427873 0.290344 0.0441567
393 1 0.432583 0.258788 0.0208958
151 1 0.366299 0.372757 0.0348968
407 1 0.793816 0.411495 0.0344774
446 1 0.892879 0.370225 0.0831397
401 1 0.705251 0.440522 0.0482939
56 1 0.88937 0.471195 0.00382163
399 1 0.0499652 0.537683 0.0760555
504 1 0.111319 0.501531 0.0413933
482 1 0.177851 0.503487 0.00317323
30 1 0.479065 0.513843 0.0749893
234 1 0.278864 0.666568 0.0723078
160 1 0.410093 0.584566 0.00906696
299 1 0.580692 0.652724 0.0449223
283 1 0.583404 0.640419 0.0636008
298 1 0.0975116 0.679369 0.049161
306 1 0.51299 0.732931 0.0589073
104 1 0.163195 0.791012 0.045732
256 1 0.376538 0.812528 0.0521593
512 1 0.819903 0.812473 0.00887568
64 1 0.00542567 0.853113 0.0310205
375 1 0.586935 0.897563 0.0327879
370 1 0.76672 0.866385 0.00626449
422 1 0.82957 0.845449 0.0535131
99 1 0.0439868 0.937129 0.0442758
19 1 0.140772 0.972817 0.0102592
268 1 0.418174 0.924884 0.0776587
433 1 0.804283 0.936456 0.050643
128 1 0.952418 0.994395 0.0627432
235 1 0.362195 0.0702545 0.163683
312 1 0.916284 0.0166343 0.154821
409 1 0.146183 0.143789 0.0941472
462 1 0.257159 0.144798 0.126603
211 1 0.594549 0.0937876 0.127133
97 1 0.441411 0.180809 0.144288
474 1 0.961657 0.247485 0.088194
118 1 0.337546 0.283146 0.114886
15 1 0.341073 0.256291 0.103014
332 1 0.794806 0.266405 0.121906
412 1 0.757117 0.324045 0.134821
466 1 0.164908 0.459484 0.135928
292 1 0.299925 0.440237 0.148877
72 1 0.293774 0.476461 0.0846115
239 1 0.59573 0.451482 0.104938
408 1 0.786567 0.437304 0.107964
489 1 0.972188 0.468923 0.121598
402 1 0.200412 0.542325 0.159047
203 1 0.398746 0.556917 0.16116
20 1 0.378403 0.577311 0.0910462
243 1 0.420664 0.537385 0.166554
238 1 0.532768 0.537092 0.104553
282 1 0.656281 0.502328 0.0893104
179 1 0.705897 0.557749 0.123944
411 1 0.881343 0.55412 0.109291
216 1 0.918677 0.535703 0.104733
49 1 0.0648207 0.611666 0.121911
105 1 0.101877 0.652928 0.101123
308 1 0.695958 0.598795 0.0989903
237 1 0.770408 0.59181 0.110336
178 1 0.136991 0.708329 0.119724
502 1 0.501265 0.724875 0.122456
350 1 0.924564 0.739752 0.157099
112 1 0.37717 0.762606 0.14516
106 1 0.897091 0.790597 0.138324
371 1 0.856092 0.798583 0.100648
226 1 0.176389 0.893586 0.103647
335 1 0.629908 0.916117 0.087603
88 1 0.767048 0.858538 0.161357
172 1 0.901513 0.846392 0.155165
230 1 0.31429 0.981307 0.100871
251 1 0.592543 0.969592 0.0861737
177 1 0.70892 0.94652 0.0959215
354 1 0.690743 0.928415 0.161187
448 1 0.13135 0.0307429 0.22034
379 1 0.543677 0.0159224 0.241421
368 1 0.855462 0.0102325 0.168631
267 1 0.302605 0.108144 0.21519
147 1 0.727056 0.130017 0.200687
208 1 0.695294 0.158524 0.214332
248 1 0.679854 0.132904 0.190404
252 1 0.890378 0.125358 0.205488
32 1 0.0484804 0.16963 0.206252
103 1 0.99416 0.204394 0.168886
314 1 0.466399 0.289563 0.237192
265 1 0.599473 0.277032 0.245176
273 1 0.614665 0.320475 0.175069
194 1 0.977976 0.292116 0.23881
76 1 0.965539 0.256145 0.236064
162 1 0.720823 0.338919 0.236004
229 1 0.670683 0.375974 0.245909
295 1 0.138445 0.427112 0.178023
204 1 0.384342 0.493319 0.231651
170 1 0.478042 0.491642 0.194662
210 1 0.648013 0.457374 0.212758
347 1 0.619882 0.434471 0.236239
51 1 0.584019 0.476949 0.244624
73 1 0.0824954 0.581074 0.223258
165 1 0.444199 0.532892 0.179997
48 1 0.697409 0.554125 0.219335
467 1 0.807657 0.665159 0.238056
55 1 0.0713613 0.705097 0.221236
297 1 0.332861 0.688024 0.242196
316 1 0.7781 0.703624 0.244905
365 1 0.821959 0.698974 0.229508
386 1 0.0308066 0.80188 0.239299
36 1 0.244124 0.764066 0.185028
18 1 0.517009 0.800248 0.203651
130 1 0.116594 0.883685 0.226487
100 1 0.452213 0.956874 0.246829
441 1 0.724944 0.989126 0.224836
458 1 0.854313 0.92095 0.246015
59 1 0.881526 0.918736 0.192775
200 1 0.634246 0.0338169 0.25482
152 1 0.583766 0.0248666 0.30722
286 1 0.684624 0.0201769 0.331655
139 1 0.946343 0.108917 0.276631
75 1 0.40203 0.238566 0.28908
395 1 0.160898 0.284946 0.263579
266 1 0.393712 0.301269 0.265509
233 1 0.673435 0.305874 0.277037
507 1 0.869821 0.261651 0.30782
505 1 0.980137 0.398875 0.299288
29 1 0.971307 0.372152 0.332619
146 1 0.105704 0.487499 0.260964
287 1 0.328908 0.465409 0.274395
377 1 0.0533108 0.518884 0.274188
90 1 0.235126 0.50552 0.270074
280 1 0.490955 0.536141 0.311393
148 1 0.636976 0.569904 0.27462
85 1 0.0368617 0.656145 0.259992
305 1 0.844649 0.63573 0.278299
435 1 0.613314 0.714184 0.289152
250 1 0.730899 0.73306 0.275969
259 1 0.314308 0.829547 0.279194
315 1 0.825862 0.825523 0.314263
418 1 0.160074 0.894255 0.299529
43 1 0.714835 0.909003 0.28322
487 1 0.682247 0.876649 0.325075
57 1 0.970454 0.886594 0.251206
499 1 0.200638 0.97272 0.264511
123 1 0.197826 0.939328 0.29822
231 1 0.252046 0.995841 0.311737
390 1 0.0599294 0.0451328 0.339457
389 1 0.120636 0.0706286 0.350593
171 1 0.460066 0.0288604 0.371679
212 1 0.653896 0.027632 0.341816
3 1 0.931996 0.0067948 0.380118
131 1 0.492487 0.100075 0.342238
66 1 0.584208 0.142337 0.391511
192 1 0.748846 0.126716 0.354675
12 1 0.204756 0.230944 0.388082
276 1 0.537344 0.196345 0.392947
348 1 0.734541 0.238983 0.37007
427 1 0.763464 0.19462 0.413834
149 1 0.18141 0.319126 0.401508
330 1 0.274478 0.280316 0.379126
387 1 0.300009 0.274698 0.409993
140 1 0.480364 0.269384 0.35029
372 1 0.422864 0.307726 0.378448
91 1 0.252487 0.407442 0.341102
81 1 0.408854 0.334312 0.342596
185 1 0.64959 0.369897 0.354395
356 1 0.727776 0.339503 0.396393
45 1 0.907034 0.34218 0.409414
93 1 0.253308 0.49079 0.364898
193 1 0.997925 0.439328 0.391533
300 1 0.956641 0.479876 0.391268
109 1 0.943121 0.486508 0.350043
82 1 0.0495294 0.563235 0.352347
26 1 0.0126334 0.553785 0.346527
41 1 0.0850941 0.562002 0.376758
220 1 0.265797 0.549493 0.380538
301 1 0.586856 0.533507 0.371436
429 1 0.694361 0.551107 0.364616
44 1 0.854586 0.553142 0.39279
42 1 0.113871 0.615985 0.343058
108 1 0.195303 0.632563 0.366437
102 1 0.361536 0.633933 0.416228
363 1 0.64636 0.602491 0.356276
98 1 0.722658 0.617918 0.384983
333 1 0.693081 0.640691 0.412022
2 1 0.0496315 0.730038 0.388389
442 1 0.537105 0.735 0.413872
307 1 0.537724 0.684716 0.403807
405 1 0.623537 0.68944 0.343877
317 1 0.600818 0.68421 0.335105
161 1 0.28419 0.755518 0.349399
9 1 0.336659 0.800115 0.363688
434 1 0.490161 0.751685 0.380244
53 1 0.838568 0.775174 0.33811
451 1 0.843757 0.912949 0.416204
293 1 0.131534 0.960361 0.38483
155 1 0.427493 0.949357 0.34706
258 1 0.874472 0.934217 0.416243
334 1 0.859005 0.931603 0.359998
274 1 0.64328 0.0581708 0.451859
440 1 0.608862 0.00837238 0.427401
380 1 0.689295 0.0187268 0.450724
498 1 0.894683 0.165148 0.436062
357 1 0.159739 0.174751 0.418019
219 1 0.572943 0.175874 0.46651
142 1 0.29091 0.261584 0.498774
506 1 0.996376 0.2556 0.429141
483 1 0.748574 0.378686 0.453692
403 1 0.831461 0.364632 0.472438
249 1 0.21723 0.459363 0.480325
349 1 0.197884 0.450133 0.450531
209 1 0.623212 0.490671 0.478661
157 1 0.746112 0.493526 0.447903
37 1 0.12274 0.53948 0.468687
156 1 0.171577 0.549759 0.459858
101 1 0.260711 0.532623 0.485265
339 1 0.666943 0.583082 0.473743
164 1 0.180083 0.628542 0.46078
34 1 0.424952 0.606148 0.482225
419 1 0.445924 0.633997 0.493282
358 1 0.55653 0.584433 0.482913
381 1 0.731754 0.642534 0.475637
414 1 0.10837 0.704858 0.439635
260 1 0.640641 0.733369 0.447663
169 1 0.736355 0.746401 0.463073
173 1 0.194932 0.788021 0.460795
60 1 0.266623 0.777013 0.428779
122 1 0.404309 0.805794 0.465773
255 1 0.489074 0.784809 0.457306
70 1 0.715051 0.782231 0.492594
336 1 0.768356 0.768935 0.426774
241 1 0.84586 0.832124 0.445925
415 1 0.0653719 0.901143 0.489968
35 1 0.244098 0.840091 0.459969
62 1 0.240325 0.864412 0.459306
244 1 0.221901 0.956233 0.422225
195 1 0.263243 0.980184 0.434504
364 1 0.477219 0.943556 0.495131
388 1 0.814841 0.944638 0.443694
54 1 0.915559 0.937327 0.438613
404 1 0.0197932 0.0489541 0.516633
28 1 0.0705172 0.0811113 0.530939
503 1 0.148853 0.0390505 0.555182
141 1 0.404127 0.0154022 0.510199
117 1 0.890049 0.0460107 0.509172
132 1 0.000422429 0.134646 0.543616
196 1 0.222745 0.11247 0.511862
319 1 0.602943 0.158329 0.507842
262 1 0.673686 0.144478 0.509542
443 1 0.928015 0.153167 0.536698
159 1 0.0239038 0.16682 0.553324
65 1 0.328296 0.230179 0.580396
397 1 0.712987 0.181187 0.557816
13 1 0.977079 0.221672 0.573922
391 1 0.997178 0.185235 0.560457
23 1 0.213083 0.315143 0.549306
135 1 0.558665 0.272364 0.571413
17 1 0.731082 0.27845 0.553905
322 1 0.751647 0.27829 0.51174
484 1 0.0657643 0.361605 0.513813
428 1 0.042734 0.400269 0.529598
452 1 0.121198 0.363684 0.572715
278 1 0.103865 0.370402 0.550654
58 1 0.0484414 0.482966 0.579729
469 1 0.00889077 0.467935 0.577838
269 1 0.401589 0.471792 0.541096
95 1 0.821889 0.422901 0.51691
468 1 0.976454 0.527116 0.529799
67 1 0.167185 0.644373 0.514142
493 1 0.087189 0.678714 0.534232
110 1 0.382868 0.707325 0.56176
291 1 0.263846 0.759768 0.511548
68 1 0.295445 0.79582 0.542749
508 1 0.731017 0.781742 0.559563
437 1 0.842708 0.769335 0.500092
492 1 0.0619007 0.838172 0.507042
188 1 0.17277 0.863946 0.549609
497 1 0.704724 0.879574 0.539193
270 1 0.374428 0.0427313 0.631245
197 1 0.456099 0.00530643 0.628013
5 1 0.541708 0.014116 0.646887
373 1 0.658973 0.0132779 0.641187
456 1 0.00533433 0.153591 0.639298
205 1 0.3645 0.150062 0.66438
228 1 0.599981 0.147434 0.612276
318 1 0.643285 0.162577 0.623803
460 1 0.730751 0.124853 0.629767
33 1 0.329132 0.306317 0.657666
326 1 0.451843 0.266872 0.63266
215 1 0.497769 0.326533 0.594721
284 1 0.527727 0.326708 0.628694
271 1 0.620057 0.285604 0.596545
116 1 0.233489 0.389892 0.608489
143 1 0.254894 0.358648 0.643041
232 1 0.231249 0.442018 0.660018
22 1 0.338367 0.492676 0.639546
94 1 0.970707 0.439321 0.615723
163 1 0.0680375 0.555962 0.631487
111 1 0.11733 0.522392 0.654563
182 1 0.357453 0.568717 0.593932
207 1 0.60235 0.572731 0.644389
420 1 0.716985 0.563611 0.654829
355 1 0.973617 0.539021 0.630278
310 1 0.572902 0.596391 0.599886
27 1 0.740368 0.599222 0.607552
77 1 0.0406651 0.749443 0.589039
227 1 0.137462 0.738264 0.58616
124 1 0.294838 0.732776 0.60415
438 1 0.647911 0.728164 0.626564
436 1 0.692358 0.679896 0.629628
445 1 0.934458 0.676121 0.649459
190 1 0.967295 0.671335 0.591063
491 1 0.19238 0.822131 0.590084
107 1 0.353165 0.822325 0.660618
323 1 0.707198 0.782424 0.590788
421 1 0.998541 0.752936 0.644152
78 1 0.134967 0.84052 0.630247
84 1 0.599766 0.869952 0.587837
61 1 0.336338 0.976886 0.644662
331 1 0.781316 0.987846 0.640852
500 1 0.886231 0.93224 0.644761
213 1 0.237556 0.0309055 0.683203
325 1 0.891666 0.0195929 0.670787
337 1 0.957982 0.0391499 0.671783
50 1 0.396245 0.0949715 0.721289
324 1 0.760212 0.158651 0.732756
511 1 0.92857 0.0900064 0.733225
16 1 0.284021 0.235421 0.721481
221 1 0.685509 0.184676 0.668567
6 1 0.943434 0.243682 0.674501
480 1 0.319346 0.257341 0.716765
340 1 0.55289 0.272475 0.708879
413 1 0.594559 0.25362 0.730982
342 1 0.671256 0.250042 0.730715
39 1 0.711259 0.299842 0.674361
92 1 0.540768 0.381248 0.709272
471 1 0.731181 0.378765 0.747201
501 1 0.786528 0.373938 0.685914
145 1 0.911497 0.364119 0.676651
453 1 0.860662 0.34371 0.747038
47 1 0.121837 0.481571 0.695011
488 1 0.162686 0.466944 0.682033
222 1 0.317443 0.477639 0.730828
346 1 0.62924 0.468834 0.726982
127 1 0.586217 0.494554 0.734969
338 1 0.668654 0.472645 0.69924
10 1 0.933868 0.442937 0.727587
14 1 0.937374 0.49601 0.673474
114 1 1.94273e-05 0.572404 0.746537
1 1 0.154962 0.536369 0.720406
416 1 0.822175 0.528078 0.727071
509 1 0.90587 0.522448 0.722779
430 1 0.928897 0.537644 0.674172
290 1 0.178143 0.626036 0.702491
257 1 0.385316 0.612941 0.742461
285 1 0.689591 0.58653 0.680843
218 1 0.914579 0.647249 0.667316
424 1 0.872691 0.597789 0.739951
378 1 0.392206 0.74207 0.708455
246 1 0.673955 0.718781 0.746879
158 1 0.75719 0.72463 0.740993
7 1 0.996631 0.7059 0.721375
52 1 0.0749287 0.825354 0.747194
121 1 0.472063 0.805017 0.721877
328 1 0.444083 0.783069 0.74114
362 1 0.446388 0.909119 0.738672
4 1 0.47275 0.846539 0.674616
294 1 0.542329 0.8761 0.69904
183 1 0.79079 0.837984 0.686396
309 1 0.67814 0.954759 0.701622
133 1 0.81769 0.922723 0.696412
461 1 0.0386371 0.00886044 0.799991
184 1 0.273808 0.0341374 0.761551
431 1 0.4547 0.069053 0.815169
264 1 0.866943 0.0704407 0.810319
359 1 0.358603 0.108409 0.818612
406 1 0.658441 0.107897 0.773128
394 1 0.0443343 0.218323 0.762801
383 1 0.11366 0.167802 0.770423
96 1 0.210812 0.242671 0.796825
21 1 0.253382 0.186233 0.832937
454 1 0.0586441 0.306575 0.830875
463 1 0.0374407 0.27313 0.75135
86 1 0.150417 0.284337 0.807206
277 1 0.348896 0.295429 0.753202
341 1 0.603923 0.310985 0.799585
272 1 0.389665 0.355713 0.810689
444 1 0.812897 0.335026 0.815809
344 1 0.78776 0.414228 0.829592
478 1 0.922972 0.379447 0.777329
494 1 0.123745 0.458426 0.767715
154 1 0.32592 0.442485 0.806666
176 1 0.327506 0.469874 0.775168
289 1 0.377221 0.47372 0.790935
366 1 0.575696 0.495165 0.779448
477 1 0.690867 0.487365 0.801303
236 1 0.764588 0.499474 0.765234
180 1 0.869862 0.453008 0.825004
247 1 0.913283 0.469988 0.818206
175 1 0.380211 0.518351 0.760046
253 1 0.103274 0.585952 0.752123
423 1 0.14682 0.617083 0.76518
275 1 0.262509 0.601011 0.754605
425 1 0.0609357 0.723398 0.775477
320 1 0.298397 0.723122 0.764252
374 1 0.738367 0.726278 0.828829
351 1 0.790908 0.728999 0.823318
25 1 0.10323 0.756727 0.801117
447 1 0.528689 0.778145 0.827243
279 1 0.718719 0.82648 0.820294
472 1 0.829317 0.811731 0.755183
69 1 0.063604 0.862495 0.761939
134 1 0.120766 0.89339 0.763787
38 1 0.164841 0.859107 0.7521
457 1 0.299061 0.835302 0.797895
198 1 0.404079 0.945194 0.756945
126 1 0.881187 0.919753 0.78779
187 1 0.15091 0.0795707 0.911929
302 1 0.386128 0.0480831 0.914159
191 1 0.551343 0.080968 0.895901
313 1 0.716462 0.0423095 0.871918
79 1 0.951843 0.0236164 0.85622
254 1 0.55714 0.0898473 0.865922
199 1 0.502645 0.127498 0.883028
439 1 0.828035 0.14283 0.896367
321 1 0.0228262 0.195317 0.915569
449 1 0.961156 0.195532 0.915044
392 1 0.171502 0.272118 0.911601
168 1 0.302081 0.327907 0.869243
201 1 0.366631 0.268188 0.875278
459 1 0.656065 0.276805 0.874265
129 1 0.209244 0.350943 0.897655
296 1 0.47824 0.379624 0.877744
167 1 0.514034 0.344558 0.871424
476 1 0.709636 0.347246 0.859464
479 1 0.100543 0.484749 0.914236
432 1 0.0970926 0.445237 0.887341
496 1 0.146653 0.492074 0.833363
288 1 0.714524 0.464737 0.913532
360 1 0.751252 0.497 0.893538
396 1 0.862316 0.424205 0.9133
400 1 0.891084 0.44561 0.855066
352 1 0.888109 0.434004 0.876113
31 1 0.0568184 0.524297 0.863919
343 1 0.933446 0.505488 0.857384
485 1 0.052688 0.590947 0.844595
80 1 0.192241 0.59853 0.903333
495 1 0.465126 0.617793 0.83635
89 1 0.955868 0.62947 0.898435
361 1 0.204667 0.723766 0.855471
245 1 0.406458 0.738101 0.839903
410 1 0.453217 0.711273 0.882605
464 1 0.693831 0.691101 0.887451
367 1 0.66593 0.765586 0.850117
119 1 0.790114 0.824577 0.858382
470 1 0.252067 0.911017 0.841582
311 1 0.409207 0.913894 0.868937
510 1 0.445571 0.870227 0.910175
181 1 0.800786 0.914964 0.86831
376 1 0.90282 0.89318 0.875522
345 1 0.994445 0.896727 0.849771
225 1 0.975521 0.884243 0.910285
417 1 0.15818 0.945462 0.897656
46 1 0.0976474 0.948052 0.854191
455 1 0.126639 0.959102 0.899945
138 1 0.36982 0.996638 0.84826
83 1 0.343981 0.957158 0.885722
136 1 0.477357 0.980475 0.840834
384 1 0.57862 0.961576 0.886741
450 1 0.837956 0.980832 0.902692
8 1 0.888259 0.97617 0.91516
398 1 0.941823 0.995624 0.897437
186 1 0.098525 0.0147799 0.9744
125 1 0.0859189 0.0488167 0.9785
490 1 0.831543 0.000475586 0.989655
202 1 0.853925 0.0543227 0.978115
150 1 0.126464 0.104171 0.959096
240 1 0.364002 0.0923287 0.925052
465 1 0.996849 0.126611 0.972815