ITEM: TIMESTEP
0
ITEM: NUMBER OF ATOMS
512
ITEM: BOX BOUNDS pp pp pp
0.0000000000000000e+00 4.0000000000000000e+01
0.0000000000000000e+00 4.0000000000000000e+01
0.0000000000000000e+00 4.0000000000000000e+01
ITEM: ATOMS id type xs ys zs
1 1 0.0625 0.0625 0.0625
65 1 0.1875 0.0625 0.0625
129 1 0.3125 0.0625 0.0625
193 1 0.4375 0.0625 0.0625
257 1 0.5625 0.0625 0.0625
321 1 0.6875 0.0625 0.0625
385 1 0.8125 0.0625 0.0625
449 1 0.9375 0.0625 0.0625
9 1 0.0625 0.1875 0.0625
73 1 0.1875 0.1875 0.0625
137 1 0.3125 0.1875 0.0625
201 1 0.4375 0.1875 0.0625
265 1 0.5625 0.1875 0.0625
329 1 0.6875 0.1875 0.0625
393 1 0.8125 0.1875 0.0625
457 1 0.9375 0.1875 0.0625
17 1 0.0625 0.3125 0.0625
81 1 0.1875 0.3125 0.0625
145 1 0.3125 0.3125 0.0625
209 1 0.4375 0.3125 0.0625
273 1 0.5625 0.3125 0.0625
337 1 0.6875 0.3125 0.0625
401 1 0.8125 0.3125 0.0625
465 1 0.9375 0.3125 0.0625
25 1 0.0625 0.4375 0.0625
89 1 0.1875 0.4375 0.0625
153 1 0.3125 0.4375 0.0625
217 1 0.4375 0.4375 0.0625
281 1 0.5625 0.4375 0.0625
345 1 0.6875 0.4375 0.0625
409 1 0.8125 0.4375 0.0625
473 1 0.9375 0.4375 0.0625
33 1 0.0625 0.5625 0.0625
97 1 0.1875 0.5625 0.0625
161 1 0.3125 0.5625 0.0625
225 1 0.4375 0.5625 0.0625
289 1 0.5625 0.5625 0.0625
353 1 0.6875 0.5625 0.0625
417 1 0.8125 0.5625 0.0625
481 1 0.9375 0.5625 0.0625
41 1 0.0625 0.6875 0.0625
105 1 0.1875 0.6875 0.0625
169 1 0.3125 0.6875 0.0625
233 1 0.4375 0.6875 0.0625
297 1 0.5625 0.6875 0.0625
361 1 0.6875 0.6875 0.0625
425 1 0.8125 0.6875 0.0625
489 1 0.9375 0.6875 0.0625
49 1 0.0625 0.8125 0.0625
113 1 0.1875 0.8125 0.0625
177 1 0.3125 0.8125 0.0625
241 1 0.4375 0.8125 0.0625
305 1 0.5625 0.8125 0.0625
369 1 0.6875 0.8125 0.0625
433 1 0.8125 0.8125 0.0625
497 1 0.9375 0.8125 0.0625
57 1 0.0625 0.9375 0.0625
121 1 0.1875 0.9375 0.0625
185 1 0.3125 0.9375 0.0625
249 1 0.4375 0.9375 0.0625
313 1 0.5625 0.9375 0.0625
377 1 0.6875 0.9375 0.0625
441 1 0.8125 0.9375 0.0625
505 1 0.9375 0.9375 0.0625
2 1 0.0625 0.0625 0.1875
66 1 0.1875 0.0625 0.1875
130 1 0.3125 0.0625 0.1875
194 1 0.4375 0.0625 0.1875
258 1 0.5625 0.0625 0.1875
322 1 0.6875 0.0625 0.1875
386 1 0.8125 0.0625 0.1875
450 1 0.9375 0.0625 0.1875
10 1 0.0625 0.1875 0.1875
74 1 0.1875 0.1875 0.1875
138 1 0.3125 0.1875 0.1875
202 1 0.4375 0.1875 0.1875
266 1 0.5625 0.1875 0.1875
330 1 0.6875 0.1875 0.1875
394 1 0.8125 0.1875 0.1875
458 1 0.9375 0.1875 0.1875
18 1 0.0625 0.3125 0.1875
82 1 0.1875 0.3125 0.1875
146 1 0.3125 0.3125 0.1875
210 1 0.4375 0.3125 0.1875
274 1 0.5625 0.3125 0.1875
338 1 0.6875 0.3125 0.1875
402 1 0.8125 0.3125 0.1875
466 1 0.9375 0.3125 0.1875
26 1 0.0625 0.4375 0.1875
90 1 0.1875 0.4375 0.1875
154 1 0.3125 0.4375 0.1875
218 1 0.4375 0.4375 0.1875
282 1 0.5625 0.4375 0.1875
346 1 0.6875 0.4375 0.1875
410 1 0.8125 0.4375 0.1875
474 1 0.9375 0.4375 0.1875
34 1 0.0625 0.5625 0.1875
98 1 0.1875 0.5625 0.1875
162 1 0.3125 0.5625 0.1875
226 1 0.4375 0.5625 0.1875
290 1 0.5625 0.5625 0.1875
354 1 0.6875 0.5625 0.1875
418 1 0.8125 0.5625 0.1875
482 1 0.9375 0.5625 0.1875
42 1 0.0625 0.6875 0.1875
106 1 0.1875 0.6875 0.1875
170 1 0.3125 0.6875 0.1875
234 1 0.4375 0.6875 0.1875
298 1 0.5625 0.6875 0.1875
362 1 0.6875 0.6875 0.1875
426 1 0.8125 0.6875 0.1875
490 1 0.9375 0.6875 0.1875
50 1 0.0625 0.8125 0.1875
114 1 0.1875 0.8125 0.1875
178 1 0.3125 0.8125 0.1875
242 1 0.4375 0.8125 0.1875
306 1 0.5625 0.8125 0.1875
370 1 0.6875 0.8125 0.1875
434 1 0.8125 0.8125 0.1875
498 1 0.9375 0.8125 0.1875
58 1 0.0625 0.9375 0.1875
122 1 0.1875 0.9375 0.1875
186 1 0.3125 0.9375 0.1875
250 1 0.4375 0.9375 0.1875
314 1 0.5625 0.9375 0.1875
378 1 0.6875 0.9375 0.1875
442 1 0.8125 0.9375 0.1875
506 1 0.9375 0.9375 0.1875
3 1 0.0625 0.0625 0.3125
67 1 0.1875 0.0625 0.3125
131 1 0.3125 0.0625 0.3125
195 1 0.4375 0.0625 0.3125
259 1 0.5625 0.0625 0.3125
323 1 0.6875 0.0625 0.3125
387 1 0.8125 0.0625 0.3125
451 1 0.9375 0.0625 0.3125
11 1 0.0625 0.1875 0.3125
75 1 0.1875 0.1875 0.3125
139 1 0.3125 0.1875 0.3125
203 1 0.4375 0.1875 0.3125
267 1 0.5625 0.1875 0.3125
331 1 0.6875 0.1875 0.3125
395 1 0.8125 0.1875 0.3125
459 1 0.9375 0.1875 0.3125
19 1 0.0625 0.3125 0.3125
83 1 0.1875 0.3125 0.3125
147 1 0.3125 0.3125 0.3125
211 1 0.4375 0.3125 0.3125
275 1 0.5625 0.3125 0.3125
339 1 0.6875 0.3125 0.3125
403 1 0.8125 0.3125 0.3125
467 1 0.9375 0.3125 0.3125
27 1 0.0625 0.4375 0.3125
91 1 0.1875 0.4375 0.3125
155 1 0.3125 0.4375 0.3125
219 1 0.4375 0.4375 0.3125
283 1 0.5625 0.4375 0.3125
347 1 0.6875 0.4375 0.3125
411 1 0.8125 0.4375 0.3125
475 1 0.9375 0.4375 0.3125
35 1 0.0625 0.5625 0.3125
99 1 0.1875 0.5625 0.3125
163 1 0.3125 0.5625 0.3125
227 1 0.4375 0.5625 0.3125
291 1 0.5625 0.5625 0.3125
355 1 0.6875 0.5625 0.3125
419 1 0.8125 0.5625 0.3125
483 1 0.9375 0.5625 0.3125
43 1 0.0625 0.6875 0.3125
107 1 0.1875 0.6875 0.3125
171 1 0.3125 0.6875 0.3125
235 1 0.4375 0.6875 0.3125
299 1 0.5625 0.6875 0.3125
363 1 0.6875 0.6875 0.3125
427 1 0.8125 0.6875 0.3125
491 1 0.9375 0.6875 0.3125
51 1 0.0625 0.8125 0.3125
115 1 0.1875 0.8125 0.3125
179 1 0.3125 0.8125 0.3125
243 1 0.4375 0.8125 0.3125
307 1 0.5625 0.8125 0.3125
371 1 0.6875 0.8125 0.3125
435 1 0.8125 0.8125 0.3125
499 1 0.9375 0.8125 0.3125
59 1 0.0625 0.9375 0.3125
123 1 0.1875 0.9375 0.3125
187 1 0.3125 0.9375 0.3125
251 1 0.4375 0.9375 0.3125
315 1 0.5625 0.9375 0.3125
379 1 0.6875 0.9375 0.3125
443 1 0.8125 0.9375 0.3125
507 1 0.9375 0.9375 0.3125
4 1 0.0625 0.0625 0.4375
68 1 0.1875 0.0625 0.4375
132 1 0.3125 0.0625 0.4375
196 1 0.4375 0.0625 0.4375
260 1 0.5625 0.0625 0.4375
324 1 0.6875 0.0625 0.4375
388 1 0.8125 0.0625 0.4375
452 1 0.9375 0.0625 0.4375
12 1 0.0625 0.1875 0.4375
76 1 0.1875 0.1875 0.4375
140 1 0.3125 0.1875 0.4375
204 1 0.4375 0.1875 0.4375
268 1 0.5625 0.1875 0.4375
332 1 0.6875 0.1875 0.4375
396 1 0.8125 0.1875 0.4375
460 1 0.9375 0.1875 0.4375
20 1 0.0625 0.3125 0.4375
84 1 0.1875 0.3125 0.4375
148 1 0.3125 0.3125 0.4375
212 1 0.4375 0.3125 0.4375
276 1 0.5625 0.3125 0.4375
340 1 0.6875 0.3125 0.4375
404 1 0.8125 0.3125 0.4375
468 1 0.9375 0.3125 0.4375
28 1 0.0625 0.4375 0.4375
92 1 0.1875 0.4375 0.4375
156 1 0.3125 0.4375 0.4375
220 1 0.4375 0.4375 0.4375
284 1 0.5625 0.4375 0.4375
348 1 0.6875 0.4375 0.4375
412 1 0.8125 0.4375 0.4375
476 1 0.9375 0.4375 0.4375
36 1 0.0625 0.5625 0.4375
100 1 0.1875 0.5625 0.4375
164 1 0.3125 0.5625 0.4375
228 1 0.4375 0.5625 0.4375
292 1 0.5625 0.5625 0.4375
356 1 0.6875 0.5625 0.4375
420 1 0.8125 0.5625 0.4375
484 1 0.9375 0.5625 0.4375
44 1 0.0625 0.6875 0.4375
108 1 0.1875 0.6875 0.4375
172 1 0.3125 0.6875 0.4375
236 1 0.4375 0.6875 0.4375
300 1 0.5625 0.6875 0.4375
364 1 0.6875 0.6875 0.4375
428 1 0.8125 0.6875 0.4375
492 1 0.9375 0.6875 0.4375
52 1 0.0625 0.8125 0.4375
116 1 0.1875 0.8125 0.4375
180 1 0.3125 0.8125 0.4375
244 1 0.4375 0.8125 0.4375
308 1 0.5625 0.8125 0.4375
372 1 0.6875 0.8125 0.4375
436 1 0.8125 0.8125 0.4375
500 1 0.9375 0.8125 0.4375
60 1 0.0625 0.9375 0.4375
124 1 0.1875 0.9375 0.4375
188 1 0.3125 0.9375 0.4375
252 1 0.4375 0.9375 0.4375
316 1 0.5625 0.9375 0.4375
380 1 0.6875 0.9375 0.4375
444 1 0.8125 0.9375 0.4375
508 1 0.9375 0.9375 0.4375
5 1 0.0625 0.0625 0.5625
69 1 0.1875 0.0625 0.5625
133 1 0.3125 0.0625 0.5625
197 1 0.4375 0.0625 0.5625
261 1 0.5625 0.0625 0.5625
325 1 0.6875 0.0625 0.5625
389 1 0.8125 0.0625 0.5625
453 1 0.9375 0.0625 0.5625
13 1 0.0625 0.1875 0.5625
77 1 0.1875 0.1875 0.5625
141 1 0.3125 0.1875 0.5625
205 1 0.4375 0.1875 0.5625
269 1 0.5625 0.1875 0.5625
333 1 0.6875 0.1875 0.5625
397 1 0.8125 0.1875 0.5625
461 1 0.9375 0.1875 0.5625
21 1 0.0625 0.3125 0.5625
85 1 0.1875 0.3125 0.5625
149 1 0.3125 0.3125 0.5625
213 1 0.4375 0.3125 0.5625
277 1 0.5625 0.3125 0.5625
341 1 0.6875 0.3125 0.5625
405 1 0.8125 0.3125 0.5625
469 1 0.9375 0.3125 0.5625
29 1 0.0625 0.4375 0.5625
93 1 0.1875 0.4375 0.5625
157 1 0.3125 0.4375 0.5625
221 1 0.4375 0.4375 0.5625
285 1 0.5625 0.4375 0.5625
349 1 0.6875 0.4375 0.5625
413 1 0.8125 0.4375 0.5625
477 1 0.9375 0.4375 0.5625
37 1 0.0625 0.5625 0.5625
101 1 0.1875 0.5625 0.5625
165 1 0.3125 0.5625 0.5625
229 1 0.4375 0.5625 0.5625
293 1 0.5625 0.5625 0.5625
357 1 0.6875 0.5625 0.5625
421 1 0.8125 0.5625 0.5625
485 1 0.9375 0.5625 0.5625
45 1 0.0625 0.6875 0.5625
109 1 0.1875 0.6875 0.5625
173 1 0.3125 0.6875 0.5625
237 1 0.4375 0.6875 0.5625
301 1 0.5625 0.6875 0.5625
365 1 0.6875 0.6875 0.5625
429 1 0.8125 0.6875 0.5625
493 1 0.9375 0.6875 0.5625
53 1 0.0625 0.8125 0.5625
117 1 0.1875 0.8125 0.5625
181 1 0.3125 0.8125 0.5625
245 1 0.4375 0.8125 0.5625
309 1 0.5625 0.8125 0.5625
373 1 0.6875 0.8125 0.5625
437 1 0.8125 0.8125 0.5625
501 1 0.9375 0.8125 0.5625
61 1 0.0625 0.9375 0.5625
125 1 0.1875 0.9375 0.5625
189 1 0.3125 0.9375 0.5625
253 1 0.4375 0.9375 0.5625
317 1 0.5625 0.9375 0.5625
381 1 0.6875 0.9375 0.5625
445 1 0.8125 0.9375 0.5625
509 1 0.9375 0.9375 0.5625
6 1 0.0625 0.0625 0.6875
70 1 0.1875 0.0625 0.6875
134 1 0.3125 0.0625 0.6875
198 1 0.4375 0.0625 0.6875
262 1 0.5625 0.0625 0.6875
326 1 0.6875 0.0625 0.6875
390 1 0.8125 0.0625 0.6875
454 1 0.9375 0.0625 0.6875
14 1 0.0625 0.1875 0.6875
78 1 0.1875 0.1875 0.6875
142 1 0.3125 0.1875 0.6875
206 1 0.4375 0.1875 0.6875
270 1 0.5625 0.1875 0.6875
334 1 0.6875 0.1875 0.6875
398 1 0.8125 0.1875 0.6875
462 1 0.9375 0.1875 0.6875
22 1 0.0625 0.3125 0.6875
86 1 0.1875 0.3125 0.6875
150 1 0.3125 0.3125 0.6875
214 1 0.4375 0.3125 0.6875
278 1 0.5625 0.3125 0.6875
342 1 0.6875 0.3125 0.6875
406 1 0.8125 0.3125 0.6875
470 1 0.9375 0.3125 0.6875
30 1 0.0625 0.4375 0.6875
94 1 0.1875 0.4375 0.6875
158 1 0.3125 0.4375 0.6875
222 1 0.4375 0.4375 0.6875
286 1 0.5625 0.4375 0.6875
350 1 0.6875 0.4375 0.6875
414 1 0.8125 0.4375 0.6875
478 1 0.9375 0.4375 0.6875
38 1 0.0625 0.5625 0.6875
102 1 0.1875 0.5625 0.6875
166 1 0.3125 0.5625 0.6875
230 1 0.4375 0.5625 0.6875
294 1 0.5625 0.5625 0.6875
358 1 0.6875 0.5625 0.6875
422 1 0.8125 0.5625 0.6875
486 1 0.9375 0.5625 0.6875
46 1 0.0625 0.6875 0.6875
110 1 0.1875 0.6875 0.6875
174 1 0.3125 0.6875 0.6875
238 1 0.4375 0.6875 0.6875
302 1 0.5625 0.6875 0.6875
366 1 0.6875 0.6875 0.6875
430 1 0.8125 0.6875 0.6875
494 1 0.9375 0.6875 0.6875
54 1 0.0625 0.8125 0.6875
118 1 0.1875 0.8125 0.6875
182 1 0.3125 0.8125 0.6875
246 1 0.4375 0.8125 0.6875
310 1 0.5625 0.8125 0.6875
374 1 0.6875 0.8125 0.6875
438 1 0.8125 0.8125 0.6875
502 1 0.9375 0.8125 0.6875
62 1 0.0625 0.9375 0.6875
126 1 0.1875 0.9375 0.6875
190 1 0.3125 0.9375 0.6875
254 1 0.4375 0.9375 0.6875
318 1 0.5625 0.9375 0.6875
382 1 0.6875 0.9375 0.6875
446 1 0.8125 0.9375 0.6875
510 1 0.9375 0.9375 0.6875
7 1 0.0625 0.0625 0.8125
71 1 0.1875 0.0625 0.8125
135 1 0.3125 0.0625 0.8125
199 1 0.4375 0.0625 0.8125
263 1 0.5625 0.0625 0.8125
327 1 0.6875 0.0625 0.8125
391 1 0.8125 0.0625 0.8125
455 1 0.9375 0.0625 0.8125
15 1 0.0625 0.1875 0.8125
79 1 0.1875 0.1875 0.8125
143 1 0.3125 0.1875 0.8125
207 1 0.4375 0.1875 0.8125
271 1 0.5625 0.1875 0.8125
335 1 0.6875 0.1875 0.8125
399 1 0.8125 0.1875 0.8125
463 1 0.9375 0.1875 0.8125
23 1 0.0625 0.3125 0.8125
87 1 0.1875 0.3125 0.8125
151 1 0.3125 0.3125 0.8125
215 1 0.4375 0.3125 0.8125
279 1 0.5625 0.3125 0.8125
343 1 0.6875 0.3125 0.8125
407 1 0.8125 0.3125 0.8125
471 1 0.9375 0.3125 0.8125
31 1 0.0625 0.4375 0.8125
95 1 0.1875 0.4375 0.8125
159 1 0.3125 0.4375 0.8125
223 1 0.4375 0.4375 0.8125
287 1 0.5625 0.4375 0.8125
351 1 0.6875 0.4375 0.8125
415 1 0.8125 0.4375 0.8125
479 1 0.9375 0.4375 0.8125
39 1 0.0625 0.5625 0.8125
103 1 0.1875 0.5625 0.8125
167 1 0.3125 0.5625 0.8125
231 1 0.4375 0.5625 0.8125
295 1 0.5625 0.5625 0.8125
359 1 0.6875 0.5625 0.8125
423 1 0.8125 0.5625 0.8125
487 1 0.9375 0.5625 0.8125
47 1 0.0625 0.6875 0.8125
111 1 0.1875 0.6875 0.8125
175 1 0.3125 0.6875 0.8125
239 1 0.4375 0.6875 0.8125
303 1 0.5625 0.6875 0.8125
367 1 0.6875 0.6875 0.8125
431 1 0.8125 0.6875 0.8125
495 1 0.9375 0.6875 0.8125
55 1 0.0625 0.8125 0.8125
119 1 0.1875 0.8125 0.8125
183 1 0.3125 0.8125 0.8125
247 1 0.4375 0.8125 0.8125
311 1 0.5625 0.8125 0.8125
375 1 0.6875 0.8125 0.8125
439 1 0.8125 0.8125 0.8125
503 1 0.9375 0.8125 0.8125
63 1 0.0625 0.9375 0.8125
127 1 0.1875 0.9375 0.8125
191 1 0.3125 0.9375 0.8125
255 1 0.4375 0.9375 0.8125
319 1 0.5625 0.9375 0.8125
383 1 0.6875 0.9375 0.8125
447 1 0.8125 0.9375 0.8125
511 1 0.9375 0.9375 0.8125
8 1 0.0625 0.0625 0.9375
72 1 0.1875 0.0625 0.9375
136 1 0.3125 0.0625 0.9375
200 1 0.4375 0.0625 0.9375
264 1 0.5625 0.0625 0.9375
328 1 0.6875 0.0625 0.9375
392 1 0.8125 0.0625 0.9375
456 1 0.9375 0.0625 0.9375
16 1 0.0625 0.1875 0.9375
80 1 0.1875 0.1875 0.9375
144 1 0.3125 0.1875 0.9375
208 1 0.4375 0.1875 0.9375
272 1 0.5625 0.1875 0.9375
336 1 0.6875 0.1875 0.9375
400 1 0.8125 0.1875 0.9375
464 1 0.9375 0.1875 0.9375
24 1 0.0625 0.3125 0.9375
88 1 0.1875 0.3125 0.9375
152 1 0.3125 0.3125 0.9375
216 1 0.4375 0.3125 0.9375
280 1 0.5625 0.3125 0.9375
344 1 0.6875 0.3125 0.9375
408 1 0.8125 0.3125 0.9375
472 1 0.9375 0.3125 0.9375
32 1 0.0625 0.4375 0.9375
96 1 0.1875 0.4375 0.9375
160 1 0.3125 0.4375 0.9375
224 1 0.4375 0.4375 0.9375
288 1 0.5625 0.4375 0.9375
352 1 0.6875 0.4375 0.9375
416 1 0.8125 0.4375 0.9375
480 1 0.9375 0.4375 0.9375
40 1 0.0625 0.5625 0.9375
104 1 0.1875 0.5625 0.9375
168 1 0.3125 0.5625 0.9375
232 1 0.4375 0.5625 0.9375
296 1 0.5625 0.5625 0.9375
360 1 0.6875 0.5625 0.9375
424 1 0.8125 0.5625 0.9375
488 1 0.9375 0.5625 0.9375
48 1 0.0625 0.6875 0.9375
112 1 0.1875 0.6875 0.9375
176 1 0.3125 0.6875 0.9375
240 1 0.4375 0.6875 0.9375
304 1 0.5625 0.6875 0.9375
368 1 0.6875 0.6875 0.9375
432 1 0.8125 0.6875 0.9375
496 1 0.9375 0.6875 0.9375
56 1 0.0625 0.8125 0.9375
120 1 0.1875 0.8125 0.9375
184 1 0.3125 0.8125 0.9375
248 1 0.4375 0.8125 0.9375
312 1 0.5625 0.8125 0.9375
376 1 0.6875 0.8125 0.9375
440 1 0.8125 0.8125 0.9375
504 1 0.9375 0.8125 0.9375
64 1 0.0625 0.9375 0.9375
128 1 0.1875 0.9375 0.9375
192 1 0.3125 0.9375 0.9375
256 1 0.4375 0.9375 0.9375
320 1 0.5625 0.9375 0.9375
384 1 0.6875 0.9375 0.9375
448 1 0.8125 0.9375 0.9375
512 1 0.9375 0.9375 0.9375
ITEM: TIMESTEP
10000
ITEM: NUMBER OF ATOMS
512
ITEM: BOX BOUNDS pp pp pp
0.0000000000000000e+00 4.0000000000000000e+01
0.0000000000000000e+00 4.0000000000000000e+01
0.0000000000000000e+00 4.0000000000000000e+01
ITEM: ATOMS id type xs ys zs
377 1 0.0485229 0.0676041 0.0749439
324 1 0.211091 0.068192 0.0312066
128 1 0.744584 0.0546131 0.0324744
106 1 0.902174 0.0701668 0.010357
262 1 0.0602796 0.100718 0.0790939
112 1 0.0827295 0.154329 0.0461506
238 1 0.494009 0.12673 0.0539153
73 1 0.961089 0.0874289 0.0273704
338 1 0.639362 0.196859 0.0686907
346 1 0.607996 0.172321 0.0186339
76 1 0.892874 0.175801 0.0146067
434 1 0.912741 0.231333 0.0212781
494 1 0.141875 0.328298 0.0705014
43 1 0.238867 0.306988 0.0672323
11 1 0.91234 0.259817 0.0111354
228 1 0.141193 0.364069 0.0571071
185 1 0.173264 0.38796 0.00989809
506 1 0.422272 0.39758 0.0522632
404 1 0.625289 0.368571 0.0374274
467 1 0.976153 0.413608 0.0531507
476 1 0.308709 0.459065 0.0743183
502 1 0.961508 0.431552 0.0731692
26 1 0.12519 0.524854 0.079009
170 1 0.131283 0.550814 0.0438305
410 1 0.198325 0.500722 0.0369583
473 1 0.263224 0.529447 0.0232055
55 1 0.443491 0.616316 0.0713999
150 1 0.60237 0.584763 0.0289849
306 1 0.849419 0.604938 0.0455979
122 1 0.31831 0.729122 0.0143544
93 1 0.368108 0.692995 0.0612565
274 1 0.401199 0.718801 0.0142014
143 1 0.503702 0.703959 0.0210426
272 1 0.102379 0.800263 0.0640623
50 1 0.312864 0.831568 0.0480142
347 1 0.414663 0.82484 0.0478232
317 1 0.545264 0.78275 0.00127093
299 1 0.707748 0.811063 0.0727327
153 1 0.735422 0.77433 0.0397658
32 1 0.894181 0.807026 0.0801803
361 1 0.881815 0.780536 0.0366
445 1 0.233043 0.86844 0.0690141
264 1 0.664421 0.845354 0.0698651
240 1 0.0746135 0.971264 0.0484955
349 1 0.117304 0.934369 0.0339403
133 1 0.626986 0.966384 0.0498401
63 1 0.0264019 0.0235705 0.0918532
385 1 0.457476 0.0190309 0.12973
145 1 0.376773 0.123816 0.113586
260 1 0.550913 0.0837238 0.0919539
458 1 0.75277 0.160207 0.138046
320 1 0.104624 0.233091 0.131142
44 1 0.391036 0.234515 0.111174
125 1 0.408635 0.218966 0.129469
48 1 0.946636 0.194621 0.13045
393 1 0.968557 0.218078 0.146686
57 1 0.937282 0.224962 0.153537
64 1 0.0490516 0.296737 0.135494
9 1 0.234314 0.315056 0.142032
301 1 0.63467 0.252279 0.115587
484 1 0.798039 0.331737 0.118842
114 1 0.838116 0.316466 0.160073
303 1 0.49188 0.407141 0.100996
392 1 0.600974 0.360439 0.12291
236 1 0.920933 0.4117 0.12251
486 1 0.163924 0.434309 0.12919
278 1 0.215048 0.496272 0.106284
58 1 0.548168 0.488342 0.112292
152 1 0.926121 0.448501 0.126561
356 1 0.444213 0.578294 0.084373
86 1 0.592888 0.576015 0.083691
15 1 0.695076 0.509546 0.161289
371 1 0.621865 0.656429 0.128411
160 1 0.784374 0.59553 0.0891936
67 1 0.242188 0.727387 0.137053
205 1 0.265347 0.678519 0.0954833
84 1 0.499578 0.702646 0.148223
171 1 0.486049 0.746108 0.148057
288 1 0.807416 0.692347 0.110458
196 1 0.937823 0.681561 0.0971426
271 1 0.0916887 0.757249 0.143298
366 1 0.13149 0.771073 0.137558
191 1 0.249607 0.750767 0.122923
335 1 0.283031 0.77888 0.119372
5 1 0.635322 0.796797 0.0902755
96 1 0.693774 0.772301 0.122968
146 1 0.356386 0.861849 0.146524
462 1 0.630274 0.846893 0.112202
74 1 0.83049 0.857909 0.134041
59 1 0.900234 0.912705 0.145022
387 1 0.897934 0.887811 0.15908
419 1 0.108219 0.961691 0.0924149
232 1 0.291694 0.97982 0.130992
475 1 0.393634 0.996108 0.150246
388 1 0.684369 0.990903 0.160561
360 1 0.0976351 0.0637701 0.1965
501 1 0.410288 0.00928977 0.2211
16 1 0.416885 0.0201527 0.181093
250 1 0.460865 0.0185207 0.231446
226 1 0.800588 0.0762115 0.196304
69 1 0.863716 0.0502979 0.235152
30 1 0.149352 0.133842 0.19913
165 1 0.372276 0.118539 0.2279
190 1 0.375514 0.0963272 0.225378
322 1 0.189156 0.228502 0.186493
269 1 0.575355 0.207763 0.225186
430 1 0.839555 0.187176 0.175887
132 1 0.0864237 0.278148 0.215432
29 1 0.00637883 0.392451 0.195394
239 1 0.649109 0.399073 0.237086
66 1 0.624036 0.40368 0.187528
466 1 0.844424 0.33356 0.21309
151 1 0.628121 0.44124 0.224454
300 1 0.743757 0.416749 0.210072
395 1 0.9367 0.448849 0.221495
367 1 0.260392 0.523674 0.193031
144 1 0.486232 0.525414 0.178122
163 1 0.815212 0.581778 0.19066
326 1 0.835367 0.547743 0.221799
169 1 0.478754 0.600147 0.176847
365 1 0.447664 0.610139 0.201655
225 1 0.468994 0.628533 0.222032
219 1 0.948325 0.656293 0.244756
235 1 0.217617 0.819253 0.197775
206 1 0.516629 0.865083 0.169522
113 1 0.632543 0.889798 0.185648
282 1 0.212343 0.966101 0.240964
210 1 0.408732 0.919678 0.232646
149 1 0.785265 0.983402 0.203842
313 1 0.466288 0.00360979 0.255127
307 1 0.911951 0.0539451 0.283336
339 1 0.394936 0.158109 0.305105
244 1 0.889512 0.0867609 0.325089
268 1 0.346841 0.177433 0.265773
252 1 0.949413 0.190369 0.259378
398 1 0.0442065 0.32845 0.289954
258 1 0.18487 0.266735 0.257366
452 1 0.354043 0.31269 0.263571
71 1 0.533261 0.363315 0.287966
207 1 0.606367 0.341572 0.326826
312 1 0.77748 0.344023 0.289387
296 1 0.999883 0.340117 0.290717
21 1 0.955106 0.369847 0.262988
158 1 0.221735 0.52164 0.328359
383 1 0.605537 0.565213 0.319327
495 1 0.838839 0.527276 0.304766
463 1 0.112748 0.623012 0.309887
131 1 0.098601 0.638349 0.297028
208 1 0.0920451 0.650557 0.33035
315 1 0.211224 0.622046 0.271749
391 1 0.391151 0.592965 0.265913
212 1 0.838111 0.62195 0.251166
455 1 0.0222462 0.69695 0.30563
368 1 0.430188 0.740717 0.297239
221 1 0.0126628 0.828134 0.297267
52 1 0.0628119 0.752238 0.270549
154 1 0.0376992 0.759106 0.330113
292 1 0.525751 0.822178 0.299686
23 1 0.045499 0.909464 0.257047
237 1 0.0350096 0.856587 0.326832
248 1 0.00926237 0.851477 0.268077
95 1 0.133121 0.834753 0.269846
280 1 0.639869 0.834601 0.278832
138 1 0.244809 0.962494 0.27146
285 1 0.557389 0.953574 0.289901
508 1 0.950401 0.930432 0.323585
416 1 0.50567 0.00381618 0.335292
80 1 0.649161 0.0421641 0.386344
218 1 0.164899 0.135146 0.3816
337 1 0.32306 0.116342 0.338126
92 1 0.484466 0.150134 0.415734
277 1 0.503594 0.148891 0.376329
54 1 0.784677 0.232192 0.364458
481 1 0.253114 0.26686 0.401185
22 1 0.357861 0.333211 0.390316
491 1 0.491507 0.251437 0.347116
352 1 0.141697 0.365156 0.37306
117 1 0.390212 0.392816 0.366465
27 1 0.0386911 0.491936 0.406071
13 1 0.621809 0.458601 0.398346
214 1 0.157483 0.578423 0.378932
340 1 0.318712 0.558393 0.412317
449 1 0.388927 0.548248 0.349807
4 1 0.859119 0.548004 0.358949
504 1 0.969601 0.514508 0.370953
142 1 0.341047 0.606314 0.398108
257 1 0.790726 0.627612 0.393606
446 1 0.916275 0.597842 0.391011
98 1 0.889537 0.612565 0.397898
369 1 0.0368897 0.716324 0.416001
459 1 0.313006 0.749214 0.397792
407 1 0.736632 0.689461 0.357953
192 1 0.692482 0.694682 0.367556
485 1 0.740623 0.683 0.39151
332 1 0.903127 0.671524 0.403778
14 1 0.341271 0.798894 0.39687
442 1 0.957614 0.787916 0.404724
309 1 0.0568738 0.837306 0.336075
328 1 0.0620039 0.891237 0.349204
178 1 0.0922306 0.84789 0.365835
180 1 0.46069 0.894629 0.364253
290 1 0.066303 0.92567 0.340138
373 1 0.137704 0.929375 0.360017
497 1 0.151681 0.937105 0.40206
202 1 0.596513 0.948727 0.39621
72 1 0.976427 0.049756 0.42529
175 1 0.103392 0.154713 0.459454
82 1 0.182054 0.0983993 0.427098
229 1 0.297897 0.10646 0.436011
259 1 0.461947 0.12561 0.428733
162 1 0.731921 0.140389 0.479047
174 1 0.26052 0.23416 0.492178
147 1 0.473072 0.234853 0.425248
79 1 0.67951 0.216465 0.427194
465 1 0.878884 0.236606 0.497695
400 1 0.861221 0.248891 0.486877
36 1 0.742775 0.282477 0.4771
255 1 0.358339 0.435418 0.460634
99 1 0.83464 0.577674 0.478123
505 1 0.183083 0.596065 0.454131
189 1 0.321097 0.624451 0.47632
89 1 0.55692 0.655679 0.49949
375 1 0.772227 0.686973 0.45695
472 1 0.964369 0.736626 0.419334
20 1 0.196681 0.825822 0.470942
77 1 0.563462 0.768269 0.457301
354 1 0.517754 0.815549 0.479183
241 1 0.744282 0.793684 0.467361
474 1 0.961733 0.761948 0.452686
101 1 0.0446512 0.858145 0.456034
198 1 0.00810209 0.907784 0.428586
246 1 0.493081 0.834333 0.431821
172 1 0.746753 0.909424 0.44897
115 1 0.893287 0.915716 0.433043
490 1 0.951758 0.868456 0.41983
195 1 0.665764 0.926653 0.447816
370 1 0.404731 0.082538 0.547477
220 1 0.442904 0.0409608 0.50611
88 1 0.982054 0.0288276 0.527742
431 1 0.0256391 0.102193 0.547468
7 1 0.000357116 0.131123 0.517632
323 1 0.0301405 0.0912963 0.576474
511 1 0.567319 0.103944 0.558821
181 1 0.628012 0.104535 0.538376
440 1 0.640593 0.146746 0.510805
414 1 0.759553 0.127088 0.582006
451 1 0.880853 0.150503 0.574167
109 1 0.920597 0.133394 0.54662
90 1 0.016141 0.231897 0.572193
6 1 0.0528547 0.177128 0.527988
70 1 0.607218 0.220157 0.550325
329 1 0.760328 0.190634 0.516716
39 1 0.8849 0.243251 0.577479
311 1 0.897799 0.199424 0.530215
155 1 0.842738 0.244496 0.519535
140 1 0.911502 0.270935 0.554068
460 1 0.973196 0.300425 0.530402
233 1 0.109936 0.397134 0.539042
62 1 0.301432 0.401231 0.548191
186 1 0.627334 0.403153 0.539801
379 1 0.344557 0.433015 0.552671
478 1 0.994659 0.47318 0.503758
503 1 0.00699232 0.539075 0.540434
308 1 0.109596 0.572014 0.569091
390 1 0.279826 0.510845 0.510683
418 1 0.522524 0.534155 0.533236
242 1 0.695671 0.566698 0.54781
108 1 0.678584 0.507051 0.567802
447 1 0.234958 0.610385 0.552728
363 1 0.596166 0.601876 0.562178
49 1 0.687743 0.628562 0.532144
19 1 0.764423 0.651174 0.544464
100 1 0.769865 0.638916 0.517876
234 1 0.0876916 0.698346 0.567146
215 1 0.152957 0.695542 0.51535
28 1 0.514381 0.737817 0.575439
65 1 0.970069 0.714852 0.535717
136 1 0.190767 0.828178 0.516507
51 1 0.325175 0.82953 0.52638
182 1 0.342434 0.779809 0.535836
408 1 0.772522 0.800589 0.553184
179 1 0.91456 0.795974 0.521036
499 1 0.272292 0.902506 0.543671
479 1 0.597996 0.841238 0.525416
31 1 0.784761 0.915569 0.563031
284 1 0.990756 0.887239 0.559519
453 1 0.284561 0.972675 0.535145
161 1 0.237402 0.0366701 0.643033
45 1 0.0528865 0.0867824 0.658003
224 1 0.237104 0.0946329 0.656956
433 1 0.371083 0.0912399 0.662356
331 1 0.614432 0.104243 0.648131
415 1 0.894186 0.133176 0.650365
213 1 0.0719275 0.237376 0.612808
397 1 0.228426 0.229339 0.589512
492 1 0.736544 0.230349 0.657026
345 1 0.948357 0.215154 0.598726
168 1 0.152401 0.263138 0.608934
111 1 0.344286 0.28323 0.61466
199 1 0.531982 0.306542 0.599986
8 1 0.513918 0.265211 0.613558
512 1 0.992325 0.290653 0.655138
217 1 0.0336142 0.382549 0.596427
107 1 0.0412236 0.382789 0.618547
364 1 0.567805 0.343439 0.659274
209 1 0.722996 0.370095 0.615961
141 1 0.57256 0.432347 0.603516
412 1 0.933575 0.499477 0.637522
461 1 0.987098 0.484236 0.625538
378 1 0.967597 0.422521 0.618346
104 1 0.106963 0.565736 0.636238
428 1 0.545472 0.528484 0.629672
184 1 0.537411 0.557176 0.631611
18 1 0.714384 0.520043 0.624979
298 1 0.153919 0.615162 0.602172
254 1 0.209886 0.584808 0.644334
480 1 0.325537 0.610063 0.629363
468 1 0.49656 0.596318 0.638671
487 1 0.364686 0.688578 0.657026
471 1 0.374465 0.826611 0.645651
56 1 0.565914 0.763489 0.639481
94 1 0.698637 0.800989 0.612371
321 1 0.868904 0.758339 0.621373
148 1 0.996382 0.81836 0.616324
417 1 0.287975 0.887479 0.632343
81 1 0.809186 0.843788 0.660965
279 1 0.317098 0.985226 0.634442
409 1 0.35037 0.935346 0.6291
222 1 0.581782 0.995555 0.631223
403 1 0.531982 0.948311 0.603771
454 1 0.680139 0.934628 0.60778
40 1 0.366047 0.0150266 0.734459
276 1 0.580911 0.0520161 0.739598
183 1 0.749602 0.0541379 0.697275
441 1 0.0791257 0.164094 0.704852
493 1 0.0585538 0.106195 0.686806
507 1 0.201277 0.153204 0.726617
110 1 0.257113 0.102564 0.706828
12 1 0.630862 0.118407 0.683605
413 1 0.773988 0.123035 0.737435
102 1 0.301367 0.192516 0.671723
489 1 0.732187 0.179038 0.727822
193 1 0.810037 0.176792 0.74232
42 1 0.876668 0.249261 0.696165
509 1 0.935234 0.170057 0.70907
103 1 0.421102 0.252364 0.737934
464 1 0.981946 0.307161 0.684558
83 1 0.616859 0.403393 0.709706
61 1 0.601283 0.413977 0.674817
420 1 0.765344 0.34565 0.735936
17 1 0.380787 0.481488 0.681856
394 1 0.530669 0.418372 0.707125
470 1 0.248282 0.547965 0.738791
3 1 0.347558 0.656192 0.724117
2 1 0.336474 0.663526 0.701973
456 1 0.487135 0.658976 0.725329
427 1 0.939431 0.631368 0.673116
287 1 0.33308 0.700237 0.698369
75 1 0.381616 0.700686 0.673591
350 1 0.434513 0.680802 0.748472
436 1 0.538293 0.701666 0.693172
482 1 0.645775 0.728812 0.685342
1 1 0.99523 0.689158 0.681962
483 1 0.104515 0.823347 0.697581
124 1 0.111544 0.912945 0.709041
41 1 0.122375 0.845944 0.707155
376 1 0.446083 0.862733 0.706948
166 1 0.454578 0.841901 0.706914
448 1 0.617468 0.885249 0.709703
333 1 0.637666 0.843403 0.701508
275 1 0.170693 0.982869 0.668868
68 1 0.332401 0.962327 0.671773
121 1 0.254319 0.94655 0.728776
230 1 0.52353 0.92874 0.691368
123 1 0.188039 0.0420179 0.809476
437 1 0.363981 0.00325128 0.805794
305 1 0.504951 0.019354 0.803624
510 1 0.611622 0.0411933 0.761081
443 1 0.924748 0.0202202 0.809178
116 1 0.423601 0.0897014 0.787312
33 1 0.515924 0.151848 0.753717
127 1 0.598109 0.111233 0.781645
432 1 0.267743 0.189959 0.780614
435 1 0.368885 0.213075 0.754551
293 1 0.443572 0.203107 0.81277
273 1 0.537417 0.198762 0.795671
389 1 0.908856 0.330357 0.769512
304 1 0.0364085 0.41312 0.769753
405 1 0.33149 0.382685 0.804932
91 1 0.942294 0.413613 0.772734
25 1 0.92837 0.378348 0.78342
488 1 0.0342019 0.419295 0.828716
386 1 0.224586 0.430171 0.782572
188 1 0.45613 0.429978 0.821669
424 1 0.505138 0.41945 0.817318
105 1 0.812935 0.469041 0.779092
35 1 0.999512 0.428078 0.799794
10 1 0.216837 0.528531 0.759248
450 1 0.260941 0.57415 0.763362
344 1 0.642135 0.533555 0.815814
251 1 0.111091 0.590057 0.796523
302 1 0.371478 0.593691 0.773652
118 1 0.826643 0.613827 0.792175
396 1 0.0483744 0.694779 0.802707
176 1 0.161535 0.729519 0.825067
197 1 0.199779 0.672555 0.804821
87 1 0.408348 0.673712 0.806483
223 1 0.502599 0.705436 0.774714
384 1 0.631977 0.712682 0.784729
358 1 0.920876 0.745805 0.804152
355 1 0.0394428 0.810235 0.832811
137 1 0.37449 0.815688 0.80093
314 1 0.423704 0.791312 0.764735
425 1 0.870158 0.793391 0.819412
343 1 0.067003 0.905148 0.758906
498 1 0.731924 0.850787 0.765214
426 1 0.905676 0.874599 0.783716
231 1 0.925583 0.874795 0.768793
283 1 0.355898 0.976069 0.812965
245 1 0.356013 0.917019 0.772135
201 1 0.368972 0.984176 0.785699
351 1 0.505154 0.966483 0.752763
167 1 0.543517 0.942373 0.821127
159 1 0.772243 0.995596 0.782933
297 1 0.860263 0.974687 0.770243
325 1 0.188532 0.0455567 0.850201
341 1 0.776224 0.0790155 0.863477
173 1 0.93293 0.00679368 0.841612
291 1 0.230406 0.157548 0.85707
243 1 0.749817 0.150079 0.895087
357 1 0.7569 0.152829 0.871501
204 1 0.45147 0.188504 0.850407
253 1 0.602076 0.239941 0.846366
402 1 0.734504 0.211619 0.865415
336 1 0.672477 0.221708 0.842658
177 1 0.293314 0.27105 0.910328
120 1 0.521328 0.291497 0.854642
348 1 0.727452 0.283799 0.870272
457 1 0.786651 0.289752 0.850922
469 1 0.891398 0.254083 0.851266
60 1 0.212463 0.396027 0.893418
334 1 0.61093 0.413578 0.897913
294 1 0.636859 0.411687 0.892621
267 1 0.827284 0.383775 0.861534
289 1 0.802002 0.387945 0.848429
187 1 0.806602 0.354213 0.88396
406 1 0.994718 0.386686 0.887698
24 1 0.32169 0.447121 0.857941
53 1 0.480487 0.486759 0.896082
429 1 0.599124 0.48159 0.897604
342 1 0.120538 0.569045 0.877309
216 1 0.22394 0.543026 0.837035
444 1 0.305756 0.516418 0.907715
227 1 0.317165 0.563532 0.846215
286 1 0.536704 0.564423 0.844413
353 1 0.788092 0.516455 0.856454
37 1 0.913543 0.529174 0.858614
97 1 0.159106 0.651141 0.870272
266 1 0.456918 0.617826 0.881824
249 1 0.817696 0.605423 0.84408
194 1 0.998984 0.608659 0.885026
156 1 0.4049 0.695953 0.837419
330 1 0.629045 0.725782 0.851911
374 1 0.784363 0.698831 0.882182
261 1 0.98087 0.706465 0.915349
126 1 0.352025 0.810229 0.868241
130 1 0.100854 0.847768 0.869221
134 1 0.739773 0.904528 0.840631
281 1 0.5156 0.920109 0.913871
359 1 0.735364 0.940693 0.892943
439 1 0.760328 0.966113 0.886525
164 1 0.354595 0.0427909 0.950371
421 1 0.953093 0.0716078 0.98663
381 1 0.0563018 0.0978854 0.953656
47 1 0.165387 0.116422 0.995893
135 1 0.259395 0.154444 0.970703
318 1 0.54315 0.094174 0.937676
422 1 0.546624 0.11617 0.965196
423 1 0.694242 0.126704 0.996837
319 1 0.673228 0.136119 0.923219
399 1 0.167309 0.228708 0.967846
119 1 0.307644 0.189602 0.980719